
                                 *****************
                                 * O   R   C   A *
                                 *****************

           --- An Ab Initio, DFT and Semiempirical electronic structure package ---

                  #######################################################
                  #                        -***-                        #
                  #  Department of molecular theory and spectroscopy    #
                  #              Directorship: Frank Neese              #
                  # Max Planck Institute for Chemical Energy Conversion #
                  #                  D-45470 Muelheim/Ruhr              #
                  #                       Germany                       #
                  #                                                     #
                  #                  All rights reserved                #
                  #                        -***-                        #
                  #######################################################


                         Program Version 4.0.0 -  RELEASE  -


 With contributions from (in alphabetic order):
   Daniel Aravena         : Magnetic Properties
   Michael Atanasov       : Ab Initio Ligand Field Theory
   Ute Becker             : Parallelization
   Martin Brehm           : Molecular dynamics
   Dmytro Bykov           : SCF Hessian
   Vijay G. Chilkuri      : MRCI spin determinant printing
   Dipayan Datta          : RHF DLPNO-CCSD density
   Achintya Kumar Dutta   : EOM-CC, STEOM-CC
   Dmitry Ganyushin       : Spin-Orbit,Spin-Spin,Magnetic field MRCI
   Yang Guo               : DLPNO-NEVPT2, CIM, IAO-localization
   Andreas Hansen         : Spin unrestricted coupled pair/coupled cluster methods
   Lee Huntington         : MR-EOM, pCC
   Robert Izsak           : Overlap fitted RIJCOSX, COSX-SCS-MP3, EOM
   Christian Kollmar      : KDIIS, OOCD, Brueckner-CCSD(T), CCSD density
   Simone Kossmann        : Meta GGA functionals, TD-DFT gradient, OOMP2, MP2 Hessian
   Martin Krupicka        : AUTO-CI
   Dagmar Lenk            : GEPOL surface
   Dimitrios Liakos       : Extrapolation schemes; parallel MDCI
   Dimitrios Manganas     : ROCIS; embedding schemes
   Dimitrios Pantazis     : SARC Basis sets
   Taras Petrenko         : DFT Hessian,TD-DFT gradient, ASA, ECA, R-Raman, ABS, FL, XAS/XES, NRVS
   Peter Pinski           : DLPNO-MP2
   Christoph Reimann      : Effective Core Potentials
   Marius Retegan         : Local ZFS, SOC
   Christoph Riplinger    : Optimizer, TS searches, QM/MM, DLPNO-CCSD(T), (RO)-DLPNO pert. Triples
   Tobias Risthaus        : Range-separated hybrids, TD-DFT gradient, RPA, STAB
   Michael Roemelt        : Restricted open shell CIS
   Masaaki Saitow         : Open-shell DLPNO
   Barbara Sandhoefer     : DKH picture change effects
   Kantharuban Sivalingam : CASSCF convergence, NEVPT2, FIC-MRCI
   Georgi Stoychev        : AutoAux
   Boris Wezisla          : Elementary symmetry handling
   Frank Wennmohs         : Technical directorship


 We gratefully acknowledge several colleagues who have allowed us to
 interface, adapt or use parts of their codes:
   Stefan Grimme, W. Hujo, H. Kruse,             : VdW corrections, initial TS optimization,
                  C. Bannwarth                     DFT functionals, gCP, sTDA/sTD-DF
   Ed Valeev                                     : LibInt (2-el integral package), F12 methods
   Garnet Chan, S. Sharma, J. Yang, R. Olivares  : DMRG
   Ulf Ekstrom                                   : XCFun DFT Library
   Mihaly Kallay                                 : mrcc  (arbitrary order and MRCC methods)
   Jiri Pittner, Ondrej Demel                    : Mk-CCSD
   Frank Weinhold                                : gennbo (NPA and NBO analysis)
   Christopher J. Cramer and Donald G. Truhlar   : smd solvation model


 Your calculation uses the libint2 library for the computation of 2-el integrals
 For citations please refer to: http://libint.valeyev.net

 This ORCA versions uses:
   CBLAS   interface :  Fast vector & matrix operations
   LAPACKE interface :  Fast linear algebra routines


Your calculation utilizes the basis: 6-31G
   H-He, Li-Ne : W. J. Hehre, R. Ditchfield and J.A. Pople, J. Chem. Phys. 56, 2257 (1972).
                 Note: He and Ne are unpublished basis sets taken from the Gaussian program.
                 Note: Li and B from J. D. Dill and J. A. Pople, J. Chem. Phys. 62, 2921 (1975).
   Na - Ar     : M. M. Francl, W. J. Pietro, W. J. Hehre, J. S. Binkley, M. S. Gordon, 
                 D. J. DeFrees and J. A. Pople, J. Chem. Phys. 77, 3654 (1982).
   K - Zn      : V. A. Rassolov, J. A. Pople, M. A. Ratner, and T. L. Windus, J. Chem. Phys. 109, 1223 (1998).

================================================================================
                                        WARNINGS
                       Please study these warnings very carefully!
================================================================================

Warning: TCutStore was < 0. Adjusted to Thresh (uncritical)

INFO   : the flag for use of LIBINT has been found!

================================================================================
                                       INPUT FILE
================================================================================
NAME = dioxygen_gD_orca400.oif
|  1> ! UKS B3LYP 6-31G
|  2> *xyz 0 3
|  3> O 0 0 0
|  4> O 0 0 1.8
|  5> *
|  6> 
|  7> %eprnmr
|  8>   gtensor 1
|  9>   Dtensor ssandso
| 10> end
| 11> 
| 12>                          ****END OF INPUT****
================================================================================

                       ****************************
                       * Single Point Calculation *
                       ****************************

---------------------------------
CARTESIAN COORDINATES (ANGSTROEM)
---------------------------------
  O      0.000000    0.000000    0.000000
  O      0.000000    0.000000    1.800000

----------------------------
CARTESIAN COORDINATES (A.U.)
----------------------------
  NO LB      ZA    FRAG     MASS         X           Y           Z
   0 O     8.0000    0    15.999    0.000000    0.000000    0.000000
   1 O     8.0000    0    15.999    0.000000    0.000000    3.401507

--------------------------------
INTERNAL COORDINATES (ANGSTROEM)
--------------------------------
 O      0   0   0     0.000000000000     0.00000000     0.00000000
 O      1   0   0     1.800000000000     0.00000000     0.00000000

---------------------------
INTERNAL COORDINATES (A.U.)
---------------------------
 O      0   0   0     0.000000000000     0.00000000     0.00000000
 O      1   0   0     3.401507041058     0.00000000     0.00000000

---------------------
BASIS SET INFORMATION
---------------------
There are 1 groups of distinct atoms

 Group   1 Type O   : 10s4p contracted to 3s2p pattern {631/31}

Atom   0O    basis set group =>   1
Atom   1O    basis set group =>   1
------------------------------------------------------------------------------
                           ORCA GTO INTEGRAL CALCULATION
------------------------------------------------------------------------------

                         BASIS SET STATISTICS AND STARTUP INFO

 # of primitive gaussian shells          ...   28
 # of primitive gaussian functions       ...   44
 # of contracted shells                  ...   10
 # of contracted basis functions         ...   18
 Highest angular momentum                ...    1
 Maximum contraction depth               ...    6
 Integral package used                   ... LIBINT
 Integral threshhold            Thresh   ...  1.000e-10
 Primitive cut-off              TCut     ...  1.000e-11


------------------------------ INTEGRAL EVALUATION ----------------------------


 * One electron integrals 
 Pre-screening matrix                    ... done
 Shell pair data                         ... done (   0.000 sec)

-------------------------------------------------------------------------------
                                 ORCA SCF
-------------------------------------------------------------------------------

------------
SCF SETTINGS
------------
Hamiltonian:
 Density Functional     Method          .... DFT(GTOs)
 Exchange Functional    Exchange        .... B88
   X-Alpha parameter    XAlpha          ....  0.666667
   Becke's b parameter  XBeta           ....  0.004200
 Correlation Functional Correlation     .... LYP
 LDA part of GGA corr.  LDAOpt          .... VWN-5
 Gradients option       PostSCFGGA      .... off
 Hybrid DFT is turned on
   Fraction HF Exchange ScalHFX         ....  0.200000
   Scaling of DF-GGA-X  ScalDFX         ....  0.720000
   Scaling of DF-GGA-C  ScalDFC         ....  0.810000
   Scaling of DF-LDA-C  ScalLDAC        ....  1.000000
   Perturbative correction              ....  0.000000
   NL short-range parameter             ....  4.800000


General Settings:
 Integral files         IntName         .... dioxygen_gD_orca400
 Hartree-Fock type      HFTyp           .... UHF
 Total Charge           Charge          ....    0
 Multiplicity           Mult            ....    3
 Number of Electrons    NEL             ....   16
 Basis Dimension        Dim             ....   18
 Nuclear Repulsion      ENuc            ....     18.8151896284 Eh

Convergence Acceleration:
 DIIS                   CNVDIIS         .... on
   Start iteration      DIISMaxIt       ....    12
   Startup error        DIISStart       ....  0.200000
   # of expansion vecs  DIISMaxEq       ....     5
   Bias factor          DIISBfac        ....   1.050
   Max. coefficient     DIISMaxC        ....  10.000
 Newton-Raphson         CNVNR           .... off
 SOSCF                  CNVSOSCF        .... off
 Level Shifting         CNVShift        .... on
   Level shift para.    LevelShift      ....    0.2500
   Turn off err/grad.   ShiftErr        ....    0.0010
 Zerner damping         CNVZerner       .... off
 Static damping         CNVDamp         .... on
   Fraction old density DampFac         ....    0.7000
   Max. Damping (<1)    DampMax         ....    0.9800
   Min. Damping (>=0)   DampMin         ....    0.0000
   Turn off err/grad.   DampErr         ....    0.1000
 Fernandez-Rico         CNVRico         .... off

SCF Procedure:
 Maximum # iterations   MaxIter         ....   125
 SCF integral mode      SCFMode         .... Direct
   Integral package                     .... LIBINT
 Reset frequeny         DirectResetFreq ....    20
 Integral Threshold     Thresh          ....  1.000e-10 Eh
 Primitive CutOff       TCut            ....  1.000e-11 Eh

Convergence Tolerance:
 Convergence Check Mode ConvCheckMode   .... Total+1el-Energy
 Convergence forced     ConvForced      .... 0
 Energy Change          TolE            ....  1.000e-06 Eh
 1-El. energy change                    ....  1.000e-03 Eh
 DIIS Error             TolErr          ....  1.000e-06


Diagonalization of the overlap matrix:
Smallest eigenvalue                        ... 1.012e-01
Time for diagonalization                   ...    0.000 sec
Threshold for overlap eigenvalues          ... 1.000e-08
Number of eigenvalues below threshold      ... 0
Time for construction of square roots      ...    0.007 sec
Total time needed                          ...    0.007 sec

-------------------
DFT GRID GENERATION
-------------------

General Integration Accuracy     IntAcc      ...  4.340
Radial Grid Type                 RadialGrid  ... Gauss-Chebyshev
Angular Grid (max. acc.)         AngularGrid ... Lebedev-110
Angular grid pruning method      GridPruning ... 3 (G Style)
Weight generation scheme         WeightScheme... Becke
Basis function cutoff            BFCut       ...    1.0000e-10
Integration weight cutoff        WCut        ...    1.0000e-14
Grids for H and He will be reduced by one unit

# of grid points (after initial pruning)     ...   3432 (   0.0 sec)
# of grid points (after weights+screening)   ...   3412 (   0.0 sec)
nearest neighbour list constructed           ...    0.0 sec
Grid point re-assignment to atoms done       ...    0.0 sec
Grid point division into batches done        ...    0.0 sec
Reduced shell lists constructed in    0.0 sec

Total number of grid points                  ...     3412
Total number of batches                      ...       54
Average number of points per batch           ...       63
Average number of grid points per atom       ...     1706
Average number of shells per batch           ...     8.29 (82.91%)
Average number of basis functions per batch  ...    15.71 (87.27%)
Average number of large shells per batch     ...     7.33 (88.38%)
Average number of large basis fcns per batch ...    14.13 (89.93%)
Maximum spatial batch extension              ...  25.65, 19.31, 17.03 au
Average spatial batch extension              ...   6.60,  5.89,  5.23 au

Time for grid setup =    0.013 sec

------------------------------
INITIAL GUESS: MODEL POTENTIAL
------------------------------
Loading Hartree-Fock densities                     ... done
Calculating cut-offs                               ... done
Setting up the integral package                    ... done
Initializing the effective Hamiltonian             ... done
Starting the Coulomb interaction                   ... done (   0.0 sec)
Reading the grid                                   ... done
Mapping shells                                     ... done
Starting the XC term evaluation                    ... done (   0.0 sec)
  promolecular density results
     # of electrons  =     15.999642623
     EX              =    -16.153679913
     EC              =     -0.561961263
     EX+EC           =    -16.715641176
Transforming the Hamiltonian                       ... done (   0.0 sec)
Diagonalizing the Hamiltonian                      ... done (   0.0 sec)
Back transforming the eigenvectors                 ... done (   0.0 sec)
Now organizing SCF variables                       ... done
                      ------------------
                      INITIAL GUESS DONE (   0.1 sec)
                      ------------------
--------------
SCF ITERATIONS
--------------
ITER       Energy         Delta-E        Max-DP      RMS-DP      [F,P]     Damp
               ***  Starting incremental Fock matrix formation  ***
  0   -150.0794770448   0.000000000000 0.00709553  0.00089132  0.0188546 0.7000
  1   -150.0808696109  -0.001392566083 0.00607609  0.00078121  0.0133679 0.7000
                               ***Turning on DIIS***
  2   -150.0819378185  -0.001068207638 0.01487047  0.00198696  0.0086841 0.0000
  3   -150.0847455140  -0.002807695514 0.00277664  0.00037883  0.0030283 0.0000
  4   -150.0848550671  -0.000109553041 0.00187041  0.00023547  0.0009000 0.0000
  5   -150.0848788334  -0.000023766286 0.00053695  0.00007417  0.0004042 0.0000
  6   -150.0848811251  -0.000002291772 0.00006411  0.00001008  0.0000286 0.0000
                 **** Energy Check signals convergence ****

               *****************************************************
               *                     SUCCESS                       *
               *           SCF CONVERGED AFTER   7 CYCLES          *
               *****************************************************

Setting up the final grid:

General Integration Accuracy     IntAcc      ...  4.670
Radial Grid Type                 RadialGrid  ... Gauss-Chebyshev
Angular Grid (max. acc.)         AngularGrid ... Lebedev-302
Angular grid pruning method      GridPruning ... 3 (G Style)
Weight generation scheme         WeightScheme... Becke
Basis function cutoff            BFCut       ...    1.0000e-10
Integration weight cutoff        WCut        ...    1.0000e-14
Grids for H and He will be reduced by one unit

# of grid points (after initial pruning)     ...  12424 (   0.0 sec)
# of grid points (after weights+screening)   ...  12402 (   0.0 sec)
nearest neighbour list constructed           ...    0.0 sec
Grid point re-assignment to atoms done       ...    0.0 sec
Grid point division into batches done        ...    0.1 sec
Reduced shell lists constructed in    0.1 sec

Total number of grid points                  ...    12402
Total number of batches                      ...      194
Average number of points per batch           ...       63
Average number of grid points per atom       ...     6201
Average number of shells per batch           ...     7.14 (71.38%)
Average number of basis functions per batch  ...    13.61 (75.61%)
Average number of large shells per batch     ...     6.50 (91.02%)
Average number of large basis fcns per batch ...    12.54 (92.13%)
Maximum spatial batch extension              ...  19.94, 19.94, 15.86 au
Average spatial batch extension              ...   3.96,  3.99,  3.43 au

Final grid set up in    0.1 sec
Final integration                            ... done (   0.1 sec)
Change in XC energy                          ...    -0.000063074
Integrated number of electrons               ...    15.999987594
Previous integrated no of electrons          ...    16.000217506

----------------
TOTAL SCF ENERGY
----------------

Total Energy       :         -150.08494424 Eh           -4084.01896 eV

Components:
Nuclear Repulsion  :           18.81518963 Eh             511.98734 eV
Electronic Energy  :         -168.90013387 Eh           -4596.00630 eV
One Electron Energy:         -243.64487348 Eh           -6629.91407 eV
Two Electron Energy:           74.74473961 Eh            2033.90777 eV

Virial components:
Potential Energy   :         -298.78791469 Eh           -8130.43250 eV
Kinetic Energy     :          148.70297045 Eh            4046.41354 eV
Virial Ratio       :            2.00929352


DFT components:
N(Alpha)           :        8.999991276507 electrons
N(Beta)            :        6.999996317267 electrons
N(Total)           :       15.999987593774 electrons
E(X)               :      -12.842649052258 Eh       
E(C)               :       -0.657028443044 Eh       
E(XC)              :      -13.499677495301 Eh       

---------------
SCF CONVERGENCE
---------------

  Last Energy change         ...   -4.0825e-08  Tolerance :   1.0000e-06
  Last MAX-Density change    ...    7.4226e-06  Tolerance :   1.0000e-05
  Last RMS-Density change    ...    1.1514e-06  Tolerance :   1.0000e-06
  Last DIIS Error            ...    1.8860e-06  Tolerance :   1.0000e-06

             **** THE GBW FILE WAS UPDATED (dioxygen_gD_orca400.gbw) ****
             **** DENSITY FILE WAS UPDATED (dioxygen_gD_orca400.scfp.tmp) ****
             **** ENERGY FILE WAS UPDATED (dioxygen_gD_orca400.en.tmp) ****
----------------------
UHF SPIN CONTAMINATION
----------------------

Warning: in a DFT calculation there is little theoretical justification to 
         calculate <S**2> as in Hartree-Fock theory. We will do it anyways
         but you should keep in mind that the values have only limited relevance

Expectation value of <S**2>     :     2.007402
Ideal value S*(S+1) for S=1.0   :     2.000000
Deviation                       :     0.007402

----------------
ORBITAL ENERGIES
----------------
                 SPIN UP ORBITALS
  NO   OCC          E(Eh)            E(eV) 
   0   1.0000     -19.337355      -526.1962 
   1   1.0000     -19.337342      -526.1958 
   2   1.0000      -1.061431       -28.8830 
   3   1.0000      -0.956940       -26.0397 
   4   1.0000      -0.461359       -12.5542 
   5   1.0000      -0.457520       -12.4498 
   6   1.0000      -0.457520       -12.4498 
   7   1.0000      -0.399739       -10.8775 
   8   1.0000      -0.399739       -10.8775 
   9   0.0000      -0.201270        -5.4768 
  10   0.0000       0.742153        20.1950 
  11   0.0000       0.742153        20.1950 
  12   0.0000       0.814768        22.1710 
  13   0.0000       0.878009        23.8919 
  14   0.0000       0.897987        24.4355 
  15   0.0000       0.897987        24.4355 
  16   0.0000       0.974736        26.5239 
  17   0.0000       1.369849        37.2755 

                 SPIN DOWN ORBITALS
  NO   OCC          E(Eh)            E(eV) 
   0   1.0000     -19.309225      -525.4307 
   1   1.0000     -19.309201      -525.4301 
   2   1.0000      -0.986896       -26.8548 
   3   1.0000      -0.869579       -23.6625 
   4   1.0000      -0.431522       -11.7423 
   5   1.0000      -0.343400        -9.3444 
   6   1.0000      -0.343400        -9.3444 
   7   0.0000      -0.220321        -5.9952 
   8   0.0000      -0.220321        -5.9952 
   9   0.0000      -0.164450        -4.4749 
  10   0.0000       0.800246        21.7758 
  11   0.0000       0.800246        21.7758 
  12   0.0000       0.836455        22.7611 
  13   0.0000       0.911709        24.8089 
  14   0.0000       0.952340        25.9145 
  15   0.0000       0.952340        25.9145 
  16   0.0000       0.994832        27.0708 
  17   0.0000       1.403856        38.2009 

                    ********************************
                    * MULLIKEN POPULATION ANALYSIS *
                    ********************************

--------------------------------------------
MULLIKEN ATOMIC CHARGES AND SPIN POPULATIONS
--------------------------------------------
   0 O :   -0.000000    1.000000
   1 O :    0.000000    1.000000
Sum of atomic charges         :   -0.0000000
Sum of atomic spin populations:    2.0000000

-----------------------------------------------------
MULLIKEN REDUCED ORBITAL CHARGES AND SPIN POPULATIONS
-----------------------------------------------------
CHARGE
  0 O s       :     3.993068  s :     3.993068
      pz      :     1.006933  p :     4.006933
      px      :     1.500000
      py      :     1.500000
  1 O s       :     3.993068  s :     3.993068
      pz      :     1.006932  p :     4.006932
      px      :     1.500000
      py      :     1.500000

SPIN
  0 O s       :     0.003674  s :     0.003674
      pz      :    -0.003674  p :     0.996326
      px      :     0.500000
      py      :     0.500000
  1 O s       :     0.003674  s :     0.003674
      pz      :    -0.003674  p :     0.996326
      px      :     0.500000
      py      :     0.500000


                     *******************************
                     * LOEWDIN POPULATION ANALYSIS *
                     *******************************

-------------------------------------------
LOEWDIN ATOMIC CHARGES AND SPIN POPULATIONS
-------------------------------------------
   0 O :   -0.000000    1.000000
   1 O :    0.000000    1.000000

----------------------------------------------------
LOEWDIN REDUCED ORBITAL CHARGES AND SPIN POPULATIONS
----------------------------------------------------
CHARGE
  0 O s       :     3.959333  s :     3.959333
      pz      :     1.040667  p :     4.040667
      px      :     1.500000
      py      :     1.500000
  1 O s       :     3.959333  s :     3.959333
      pz      :     1.040667  p :     4.040666
      px      :     1.500000
      py      :     1.500000

SPIN
  0 O s       :     0.003615  s :     0.003615
      pz      :    -0.003615  p :     0.996384
      px      :     0.500000
      py      :     0.500000
  1 O s       :     0.003615  s :     0.003615
      pz      :    -0.003615  p :     0.996385
      px      :     0.500000
      py      :     0.500000


                      *****************************
                      * MAYER POPULATION ANALYSIS *
                      *****************************

  NA   - Mulliken gross atomic population
  ZA   - Total nuclear charge
  QA   - Mulliken gross atomic charge
  VA   - Mayer's total valence
  BVA  - Mayer's bonded valence
  FA   - Mayer's free valence

  ATOM       NA         ZA         QA         VA         BVA        FA
  0 O      8.0000     8.0000    -0.0000     2.5028     1.9831     0.5197
  1 O      8.0000     8.0000     0.0000     2.5028     1.9831     0.5197

  Mayer bond orders larger than 0.1
B(  0-O ,  1-O ) :   1.9831 


                ***UHF Natural Orbitals were saved in dioxygen_gD_orca400.unso***


                ***UHF Natural Orbitals were saved in dioxygen_gD_orca400.uno***

QR-MO GENERATION
 Dim     =   18
 Mult    =    3
 NEl     =   16
 N(DOMO) =    7
 N(SOMO) =    2
 N(VMO)  =    9


                ***Quasi-Restricted Orbitals were saved in dioxygen_gD_orca400.qro***

Orbital Energies of Quasi-Restricted MO's
   0( 2) :   -19.309218 a.u.  -525.431 eV
   1( 2) :   -19.309194 a.u.  -525.430 eV
   2( 2) :    -0.986698 a.u.   -26.849 eV
   3( 2) :    -0.869415 a.u.   -23.658 eV
   4( 2) :    -0.431469 a.u.   -11.741 eV
   5( 2) :    -0.342499 a.u.    -9.320 eV
   6( 2) :    -0.342499 a.u.    -9.320 eV
   7( 1) :    -0.308711 a.u.    -8.400 eV alpha=  -10.877 beta=   -5.923
   8( 1) :    -0.308711 a.u.    -8.400 eV alpha=  -10.877 beta=   -5.923
   9( 0) :    -0.201345 a.u.    -5.479 eV
  10( 0) :     0.741212 a.u.    20.169 eV
  11( 0) :     0.741212 a.u.    20.169 eV
  12( 0) :     0.814698 a.u.    22.169 eV
  13( 0) :     0.877866 a.u.    23.888 eV
  14( 0) :     0.897987 a.u.    24.435 eV
  15( 0) :     0.897987 a.u.    24.435 eV
  16( 0) :     0.974628 a.u.    26.521 eV
  17( 0) :     1.369822 a.u.    37.275 eV
-------
TIMINGS
-------

Total SCF time: 0 days 0 hours 0 min 1 sec 

Total time                  ....       1.659 sec
Sum of individual times     ....       1.448 sec  ( 87.3%)

Fock matrix formation       ....       1.199 sec  ( 72.3%)
  XC integration            ....       0.314 sec  ( 26.2% of F)
    Basis function eval.    ....       0.030 sec  (  9.4% of XC)
    Density eval.           ....       0.023 sec  (  7.2% of XC)
    XC-Functional eval.     ....       0.053 sec  ( 16.8% of XC)
    XC-Potential eval.      ....       0.012 sec  (  3.7% of XC)
Diagonalization             ....       0.006 sec  (  0.3%)
Density matrix formation    ....       0.000 sec  (  0.0%)
Population analysis         ....       0.042 sec  (  2.5%)
Initial guess               ....       0.089 sec  (  5.4%)
Orbital Transformation      ....       0.000 sec  (  0.0%)
Orbital Orthonormalization  ....       0.000 sec  (  0.0%)
DIIS solution               ....       0.023 sec  (  1.4%)
Grid generation             ....       0.089 sec  (  5.4%)

-------------------------   --------------------
FINAL SINGLE POINT ENERGY      -150.084944240220
-------------------------   --------------------

   --->>> g-tensor requested, so NeedSOC=true

                            ***************************************
                            *     ORCA property calculations      *
                            ***************************************

                                    ---------------------
                                    Active property flags
                                    ---------------------
   (+) Dipole Moment
   (+) g-tensor
   (+) D-tensor
   (+) Spin-Orbit Integrals are needed


------------------------------------------------------------------------------
                       ORCA ELECTRIC PROPERTIES CALCULATION
------------------------------------------------------------------------------

Dipole Moment Calculation                       ... on
Quadrupole Moment Calculation                   ... off
Polarizability Calculation                      ... off
GBWName                                         ... dioxygen_gD_orca400.gbw
Electron density file                           ... dioxygen_gD_orca400.scfp.tmp

-------------
DIPOLE MOMENT
-------------
                                X             Y             Z
Electronic contribution:      0.00000      -0.00000       0.00000
Nuclear contribution   :      0.00000       0.00000       0.00000
                        -----------------------------------------
Total Dipole Moment    :      0.00000      -0.00000       0.00000
                        -----------------------------------------
Magnitude (a.u.)       :      0.00000
Magnitude (Debye)      :      0.00000

------------------------------------------------------------------------------
                         ORCA SPIN-ORBIT COUPLING CALCULATION
------------------------------------------------------------------------------

GBW file                                    ... dioxygen_gD_orca400.gbw
Input density                               ... dioxygen_gD_orca400.scfp.tmp
Output integrals                            ... dioxygen_gD_orca400
Operator type                               ... Mean-field/Effective potential
   One-Electron Terms                       ... 1
   Coulomb Contribution                     ... 2
   Exchange Contribution                    ... 3
   Correlation Contribution                 ... 0
   Maximum number of centers                ... 4
Setting up the integration grid             ... done
Evaluating density on the grid              ... (NumEl=   16.000218) done
Evaluating Coulomb term semi-analytically   ... done
One-Center Exchange (+SOO)                  ... done
Evaluating the spin-orbit operator          ... done
Total time for SOC:  0.330
------------------------------------------------------------------------------
                                ORCA EPR/NMR CALCULATION
------------------------------------------------------------------------------

GBWName                      ... dioxygen_gD_orca400.gbw
Electron density file        ... dioxygen_gD_orca400.scfp.tmp
Spin density file            ... dioxygen_gD_orca400.scfr.tmp
Spin-orbit integrals         ... dioxygen_gD_orca400
Origin for angular momentum  ... Center of electronic charge
Coordinates of the origin    ...   -0.00000000    0.00000000    1.70075346 (bohrs)
Details of the CP(SCF) procedure:
       Solver   = POPLE   
       MaxIter  =    64   
       Tolerance=    1.000e-06
       Op-0     =   0-  8 =>   9- 17
       Op-1     =   0-  6 =>   7- 17
Multiplicity                 ... 3
g-tensor                     ... 1
NMR chemical shifts          ... 0
D-tensor                     ... spin-spin and spin-orbit
D(SS)-algorithm              ... input spin density
D(SOC)-algorithm             ... PK (=Pederson-Khanna)
Using LibInt in CPSCF-CP

Calculating angular momentum integrals               ... done
Forming RHS of the CP-SCF equations         ... 
     CP-SCF ITERATION   0: 
     CP-SCF ITERATION   1:      0.263603512
     CP-SCF ITERATION   2:      0.002423832
     CP-SCF ITERATION   3:      0.000030477
     CP-SCF ITERATION   4:      0.000000081

Forming final perturbed densities           ... done
Transforming perturbed density to AO basis  ...  done

Magnetic field perturbation calculated in  0.665 sec

-------------------
ELECTRONIC G-MATRIX
-------------------

 The g-matrix: 
              2.0194958   -0.0000000   -0.0000000
             -0.0000000    2.0194958   -0.0000000
             -0.0000000   -0.0000000    2.0021331

 gel          2.0023193    2.0023193    2.0023193
 gRMC        -0.0003391   -0.0003391   -0.0003391
 gDSO(tot)    0.0001529    0.0001346    0.0001346
 gPSO(tot)    0.0000000    0.0173810    0.0173810
             ----------   ----------   ----------
 g(tot)       2.0021331    2.0194958    2.0194958 iso=  2.0137083
 Delta-g     -0.0001861    0.0171765    0.0171765 iso=  0.0113890
 Orientation: 
  X           0.0000000   -0.3997987    0.9166030
  Y           0.0000000   -0.9166030   -0.3997987
  Z           1.0000000    0.0000000   -0.0000000

Notes:  (1) The principal values are square roots of the eigenvalues of gT*g
        (2) Orientations are eigenvectors of gT*g written as column vectors
        (3) Individual contributions are projections of the full matrices onto the eigenvectors of gT*g
        (4) Tensor is right-handed


Starting the spin-spin zero-field-splitting computation (DIRECT)...

WARNING: With dss direct the Exchange and Coulomb contribution to
           the spin-spin ZFS are not correct!

                        ... done with spin-spin calculation

Starting the spin-orbit zero-field-splitting computation (CP)...
Transforming integrals                       ... Max(Pert)=   2.9173e-05
Warning: Perturbation too small - adjusting
Transforming integrals                       ... Max(Pert)=   3.1769e-04
Warning: Perturbation too small - adjusting
Transforming integrals                       ... Max(Pert)=   3.4597e-03
done
     CP-SCF ITERATION   0: 
     CP-SCF ITERATION   1:      0.000111537
     CP-SCF ITERATION   2:      0.000003910
     CP-SCF ITERATION   3:      0.000000204
Warning (ZFS tensor): Using the prefactors
   -1/(4S**2) for same spin
    1/(4S**2) for alpha->beta
    1/(4S**2) for beta->alpha
    ... this is not correct but has been explicitly requested!
                        ... done with spin-orbit calculation

---------------------------
ZERO-FIELD-SPLITTING TENSOR
---------------------------

raw-matrix : 
  -0.250415    -0.000000    -0.000000  
  -0.000000    -0.250415    -0.000000  
  -0.000000    -0.000000     1.858361  

Tensor is right-handed
diagonalized D matrix : 
  -0.250415    -0.250415     1.858361  

  -0.004767     0.999989    -0.000000  
  -0.999989    -0.004767    -0.000000  
  -0.000000     0.000000     1.000000  


Direction X=1 Y=0 Z=2
D   =     2.108776  cm**-1
E/D =     0.000000

SPIN-SPIN-PART
                   0          1          2    
      0      -0.607490   0.000000  -0.000000
      1       0.000000  -0.607490  -0.000000
      2      -0.000000  -0.000000   1.214980
Exchange and Coulomb parts of SS (raw)
Coulomb
                   0          1          2    
      0      -0.453666   0.000000  -0.000000
      1       0.000000  -0.453666  -0.000000
      2      -0.000000  -0.000000   0.907333
Exchange
                   0          1          2    
      0      -0.153824   0.000000  -0.000000
      1       0.000000  -0.153824  -0.000000
      2      -0.000000  -0.000000   0.307647
One-, two-, three- and four-center SS contributions (raw)
One-Center            (AA|AA):
                   0          1          2    
      0      -0.676613   0.000000  -0.000000
      1       0.000000  -0.676613  -0.000000
      2      -0.000000  -0.000000   1.353226
Two-Center-Coulomb    (AA|BB):
                   0          1          2    
      0       0.068613   0.000000   0.000000
      1       0.000000   0.068613   0.000000
      2       0.000000   0.000000  -0.137227
Two-Center-Exchange   (AB|BA):
                   0          1          2    
      0      -0.000872   0.000000   0.000000
      1       0.000000  -0.000872   0.000000
      2       0.000000   0.000000   0.001743
Two-Center-hybrid     (AA|AB):
                   0          1          2    
      0       0.001381  -0.000000  -0.000000
      1      -0.000000   0.001381   0.000000
      2      -0.000000   0.000000  -0.002762
Three-Center-Coulomb  (AA|BC):
                   0          1          2    
      0       0.000000  -0.000000  -0.000000
      1      -0.000000   0.000000  -0.000000
      2      -0.000000  -0.000000   0.000000
Three-Center-Exchange (AB|AC):
                   0          1          2    
      0       0.000000  -0.000000  -0.000000
      1      -0.000000   0.000000  -0.000000
      2      -0.000000  -0.000000   0.000000
Four-Center           (AB|CD):
                   0          1          2    
      0       0.000000  -0.000000  -0.000000
      1      -0.000000   0.000000  -0.000000
      2      -0.000000  -0.000000   0.000000
ALPHA-PART
                   0          1          2    
      0      -0.228630  -0.000000  -0.000000
      1      -0.000000  -0.228630  -0.000000
      2      -0.000000  -0.000000  -0.096645
BETA-PART
                   0          1          2    
      0      -0.733241   0.000000   0.000000
      1       0.000000  -0.733241   0.000000
      2       0.000000   0.000000  -0.048174
ALPHA->BETA-PART
                   0          1          2    
      0       0.390889  -0.000000  -0.000000
      1      -0.000000   0.390889  -0.000000
      2      -0.000000  -0.000000   0.742098
BETA->ALPHA-PART
                   0          1          2    
      0       0.928058  -0.000000   0.000000
      1      -0.000000   0.928058   0.000000
      2       0.000000   0.000000   0.046102

Individual contributions (in cm**-1)
                                   D         E
SPIN-SPIN                  :   1.82247    0.00000
  Exchange vs Coulomb
  Coulomb                  :   1.36100    0.00000
  Exchange                 :   0.46147    0.00000
  One through four center contributions:
  1-center                 :   2.02984    0.00000
  2-center-Coulomb         :  -0.20584    0.00000
  2-center-Exchange        :   0.00261    0.00000
  2-center-Hybrid          :  -0.00414   -0.00000
  3-center-Coulomb         :   0.00000    0.00000
  3-center-Exchange        :   0.00000    0.00000
  4-center                 :   0.00000    0.00000
SPIN-ORBIT                 :   0.28631    0.00000
SOMO->VMO  (alpha->alpha)  :   0.13198    0.00000
DOMO->SOMO (beta ->beta )  :   0.68507    0.00000
SOMO->SOMO (alpha->beta )  :   0.35121   -0.00000
DOMO->VMO  (beta ->alpha)  :  -0.88196    0.00000


Timings for individual modules:

Sum of individual times         ...        4.225 sec (=   0.070 min)
GTO integral calculation        ...        0.298 sec (=   0.005 min)   7.1 %
Spin-Orbit-Coupling Matrices    ...        0.325 sec (=   0.005 min)   7.7 %
SCF iterations                  ...        1.729 sec (=   0.029 min)  40.9 %
SCF-level EPR/NMR calculation   ...        1.873 sec (=   0.031 min)  44.3 %
                             ****ORCA TERMINATED NORMALLY****
TOTAL RUN TIME: 0 days 0 hours 0 minutes 4 seconds 471 msec
