
                                 *****************
                                 * O   R   C   A *
                                 *****************

           --- An Ab Initio, DFT and Semiempirical electronic structure package ---

                  #######################################################
                  #                        -***-                        #
                  #  Department of molecular theory and spectroscopy    #
                  #              Directorship: Frank Neese              #
                  # Max Planck Institute for Chemical Energy Conversion #
                  #                  D-45470 Muelheim/Ruhr              #
                  #                       Germany                       #
                  #                                                     #
                  #                  All rights reserved                #
                  #                        -***-                        #
                  #######################################################


                         Program Version 3.0.3 -  RELEASE  -


 With contributions from (in alphabetic order):
   Ute Becker             : Parallelization
   Dmytro Bykov           : SCF Hessian
   Dmitry Ganyushin       : Spin-Orbit,Spin-Spin,Magnetic field MRCI
   Andreas Hansen         : Spin unrestricted coupled pair/coupled cluster methods
   Dimitrios Liakos       : Extrapolation schemes; parallel MDCI
   Robert Izsak           : Overlap fitted RIJCOSX, COSX-SCS-MP3
   Christian Kollmar      : KDIIS, OOCD, Brueckner-CCSD(T), CCSD density
   Simone Kossmann        : Meta GGA functionals, TD-DFT gradient, OOMP2, MP2 Hessian
   Taras Petrenko         : DFT Hessian,TD-DFT gradient, ASA and ECA modules, normal mode analysis, Resonance Raman, ABS, FL, XAS/XES, NRVS
   Christoph Reimann      : Effective Core Potentials
   Michael Roemelt        : Restricted open shell CIS
   Christoph Riplinger    : Improved optimizer, TS searches, QM/MM, DLPNO-CCSD
   Barbara Sandhoefer     : DKH picture change effects
   Igor Schapiro          : Molecular dynamics
   Kantharuban Sivalingam : CASSCF convergence, NEVPT2
   Boris Wezisla          : Elementary symmetry handling
   Frank Wennmohs         : Technical directorship


 We gratefully acknowledge several colleagues who have allowed us to
 interface, adapt or use parts of their codes:
   Stefan Grimme, W. Hujo, H. Kruse, T. Risthaus : VdW corrections, initial TS optimization,
                                                   DFT functionals, gCP
   Ed Valeev                                     : LibInt (2-el integral package), F12 methods
   Garnet Chan, S. Sharma, R. Olivares           : DMRG
   Ulf Ekstrom                                   : XCFun DFT Library
   Mihaly Kallay                                 : mrcc  (arbitrary order and MRCC methods)
   Andreas Klamt, Michael Diedenhofen            : otool_cosmo (COSMO solvation model)
   Frank Weinhold                                : gennbo (NPA and NBO analysis)
   Christopher J. Cramer and Donald G. Truhlar   : smd solvation model


 Your calculation uses the libint2 library for the computation of 2-el integrals
 For citations please refer to: http://libint.valeyev.net

 This ORCA versions uses:
   CBLAS   interface :  Fast vector & matrix operations
   LAPACKE interface :  Fast linear algebra routines


Your calculation utilizes the basis: 6-31G
Cite in your paper:
H - He: W.J. Hehre, R. Ditchfield and J.A. Pople, J. Chem. Phys. 56,
Li - Ne: 2257 (1972).  Note: Li and B come from J.D. Dill and J.A.
         Pople, J. Chem. Phys. 62, 2921 (1975).
Na - Ar: M.M. Francl, W.J. Pietro, W.J. Hehre, J.S. Binkley, M.S. Gordon,
         D.J. DeFrees and J.A. Pople, J. Chem. Phys. 77, 3654 (1982)
K  - Zn: V. Rassolov, J.A. Pople, M. Ratner and T.L. Windus, J. Chem. Phys.
         (accepted, 1998)
Note: He and Ne are unpublished basis sets taken from the Gaussian program

================================================================================
                                        WARNINGS
                       Please study these warnings very carefully!
================================================================================
Now building the actual basis set


INFO   : the flag for use of LIBINT has been found!

================================================================================
                                       INPUT FILE
================================================================================
NAME = hydroxyl_g.oif
|  1> ! UKS B3LYP 6-31G
|  2> *xyz 0 2
|  3> O 0 0 0
|  4> H 0 0 1.1
|  5> *
|  6> 
|  7> %eprnmr
|  8>   gtensor 1
|  9> end
| 10> 
| 11>                          ****END OF INPUT****
================================================================================

                       ****************************
                       * Single Point Calculation *
                       ****************************

---------------------------------
CARTESIAN COORDINATES (ANGSTROEM)
---------------------------------
  O      0.000000    0.000000    0.000000
  H      0.000000    0.000000    1.100000

----------------------------
CARTESIAN COORDINATES (A.U.)
----------------------------
  NO LB      ZA    FRAG    MASS        X           Y           Z
   0 O     8.0000    0    15.999          0.000000000000000          0.000000000000000          0.000000000000000
   1 H     1.0000    0     1.008          0.000000000000000          0.000000000000000          2.078698747313377

--------------------------------
INTERNAL COORDINATES (ANGSTROEM)
--------------------------------
 O      0   0   0   0.000000     0.000     0.000
 H      1   0   0   1.100000     0.000     0.000

---------------------------
INTERNAL COORDINATES (A.U.)
---------------------------
 O      0   0   0   0.000000     0.000     0.000
 H      1   0   0   2.078699     0.000     0.000

---------------------
BASIS SET INFORMATION
---------------------
There are 2 groups of distinct atoms

 Group   1 Type O   : 10s4p contracted to 3s2p pattern {631/31}
 Group   2 Type H   : 4s contracted to 2s pattern {31}

Atom   0O    basis set group =>   1
Atom   1H    basis set group =>   2

Checking for AutoStart:
The File: hydroxyl_g.gbw exists
Trying to determine its content:
     ... Fine, the file contains calculation information
     ... Fine, the calculation information was read
     ... Fine, the file contains a basis set
     ... Fine, the basis set was read
     ... Fine, the file contains a geometry
     ... Fine, the geometry was read
     ... Fine, the file contains a set of orbitals
     ... Fine, the orbitals can be read
     => possible old guess file was deleted
     => GBW file was renamed to GES file
     => GES file is set as startup file
     => Guess is set to MORead
     ... now leaving AutoStart

------------------------------------------------------------------------------
                           ORCA GTO INTEGRAL CALCULATION
------------------------------------------------------------------------------

                         BASIS SET STATISTICS AND STARTUP INFO

 # of primitive gaussian shells          ...   18
 # of primitive gaussian functions       ...   26
 # of contracted shell                   ...    7
 # of contracted basis functions         ...   11
 Highest angular momentum                ...    1
 Maximum contraction depth               ...    6
 Integral package used                   ... LIBINT
 Integral threshhold            Thresh   ... 1.000e-010
 Primitive cut-off              TCut     ... 1.000e-011


                              INTEGRAL EVALUATION

 One electron integrals                  ... done
 Pre-screening matrix                    ... done
 Shell pair data                         ... done (   0.000 sec)

Timings:
 Total evaluation time               ...     0.001 sec (   0.000 min)
 One electron matrix time            ...     0.005 sec (   0.000 min) =500.0%
 Schwartz matrix evaluation time     ...     0.082 sec (   0.001 min) =8200.0%

-------------------------------------------------------------------------------
                                 ORCA SCF
-------------------------------------------------------------------------------

------------
SCF SETTINGS
------------
Hamiltonian:
 Density Functional     Method          .... DFT(GTOs)
 Exchange Functional    Exchange        .... B88
   X-Alpha parameter    XAlpha          ....  0.666667
   Becke's b parameter  XBeta           ....  0.004200
 Correlation Functional Correlation     .... LYP
 LDA part of GGA corr.  LDAOpt          .... VWN-5
 Gradients option       PostSCFGGA      .... off
 Hybrid DFT is turned on
   Fraction HF Exchange ScalHFX         ....  0.200000
   Scaling of DF-GGA-X  ScalDFX         ....  0.720000
   Scaling of DF-GGA-C  ScalDFC         ....  0.810000
   Scaling of DF-LDA-C  ScalLDAC        ....  1.000000
   Perturbative correction              ....  0.000000
   NL short-range parameter             ....  4.800000


General Settings:
 Integral files         IntName         .... hydroxyl_g
 Hartree-Fock type      HFTyp           .... UHF
 Total Charge           Charge          ....    0
 Multiplicity           Mult            ....    2
 Number of Electrons    NEL             ....    9
 Basis Dimension        Dim             ....   11
 Nuclear Repulsion      ENuc            ....      3.8485615149 Eh

Convergence Acceleration:
 DIIS                   CNVDIIS         .... on
   Start iteration      DIISMaxIt       ....    12
   Startup error        DIISStart       ....  0.200000
   # of expansion vecs  DIISMaxEq       ....     5
   Bias factor          DIISBfac        ....   1.050
   Max. coefficient     DIISMaxC        ....  10.000
 Newton-Raphson         CNVNR           .... off
 SOSCF                  CNVSOSCF        .... off
 Level Shifting         CNVShift        .... on
   Level shift para.    LevelShift      ....    0.2500
   Turn off err/grad.   ShiftErr        ....    0.0010
 Zerner damping         CNVZerner       .... off
 Static damping         CNVDamp         .... on
   Fraction old density DampFac         ....    0.7000
   Max. Damping (<1)    DampMax         ....    0.9800
   Min. Damping (>=0)   DampMin         ....    0.0000
   Turn off err/grad.   DampErr         ....    0.1000
 Fernandez-Rico         CNVRico         .... off

SCF Procedure:
 Maximum # iterations   MaxIter         ....   125
 SCF integral mode      SCFMode         .... Direct
   Integral package                     .... LIBINT
 Reset frequeny         DirectResetFreq ....    20
 Integral Threshold     Thresh          .... 1.000e-010 Eh
 Primitive CutOff       TCut            .... 1.000e-011 Eh

Convergence Tolerance:
 Convergence Check Mode ConvCheckMode   .... Total+1el-Energy
 Energy Change          TolE            .... 1.000e-006 Eh
 1-El. energy change                    .... 1.000e-003 Eh
 DIIS Error             TolErr          .... 1.000e-006


Diagonalization of the overlap matrix:
Smallest eigenvalue                        ... 1.071e-001
Time for diagonalization                   ...    0.001 sec
Threshold for overlap eigenvalues          ... 1.000e-008
Number of eigenvalues below threshold      ... 0
Time for construction of square roots      ...    0.001 sec
Total time needed                          ...    0.002 sec

---------------------
INITIAL GUESS: MOREAD
---------------------
Guess MOs are being read from file: hydroxyl_g.ges
Input Geometry matches current geometry (good)
Input basis set matches current basis set (good)
MOs were renormalized
MOs were reorthogonalized (Cholesky)
                      ------------------
                      INITIAL GUESS DONE (   0.0 sec)
                      ------------------
-------------------
DFT GRID GENERATION
-------------------

General Integration Accuracy     IntAcc      ...  4.340
Radial Grid Type                 RadialGrid  ... Gauss-Chebyshev
Angular Grid (max. acc.)         AngularGrid ... Lebedev-110
Angular grid pruning method      GridPruning ... 3 (G Style)
Weight generation scheme         WeightScheme... Becke
Basis function cutoff            BFCut       ...   1.0000e-010
Integration weight cutoff        WCut        ...   1.0000e-014
Grids for H and He will be reduced by one unit

# of grid points (after initial pruning)     ...   2510 (   0.0 sec)
# of grid points (after weights+screening)   ...   2486 (   0.0 sec)
nearest neighbour list constructed           ...    0.0 sec
Grid point re-assignment to atoms done       ...    0.0 sec
Grid point division into batches done        ...    0.0 sec
Reduced shell lists constructed in    0.0 sec

Total number of grid points                  ...     2486
Total number of batches                      ...       40
Average number of points per batch           ...       62
Average number of grid points per atom       ...     1243
Average number of shells per batch           ...     6.46 (92.33%)
Average number of basis functions per batch  ...    10.27 (93.35%)
Average number of large shells per batch     ...     6.02 (93.21%)
Average number of large basis fcns per batch ...     9.73 (94.77%)
Maximum spatial batch extension              ...  20.95, 25.65, 15.85 au
Average spatial batch extension              ...   7.13,  7.16,  5.52 au

Time for grid setup =    0.012 sec

--------------
SCF ITERATIONS
--------------
ITER       Energy         Delta-E        Max-DP      RMS-DP      [F,P]     Damp
               ***  Starting incremental Fock matrix formation  ***
  0    -75.6686038154   0.000000000000 0.00001900  0.00000322  0.0000255 0.7000
                 **** Energy Check signals convergence ****

               *****************************************************
               *                     SUCCESS                       *
               *           SCF CONVERGED AFTER   1 CYCLES          *
               *****************************************************

Setting up the final grid:

General Integration Accuracy     IntAcc      ...  4.670
Radial Grid Type                 RadialGrid  ... Gauss-Chebyshev
Angular Grid (max. acc.)         AngularGrid ... Lebedev-302
Angular grid pruning method      GridPruning ... 3 (G Style)
Weight generation scheme         WeightScheme... Becke
Basis function cutoff            BFCut       ...   1.0000e-010
Integration weight cutoff        WCut        ...   1.0000e-014
Grids for H and He will be reduced by one unit

# of grid points (after initial pruning)     ...   9606 (   0.0 sec)
# of grid points (after weights+screening)   ...   9579 (   0.0 sec)
nearest neighbour list constructed           ...    0.0 sec
Grid point re-assignment to atoms done       ...    0.0 sec
Grid point division into batches done        ...    0.0 sec
Reduced shell lists constructed in    0.1 sec

Total number of grid points                  ...     9579
Total number of batches                      ...      150
Average number of points per batch           ...       63
Average number of grid points per atom       ...     4790
Average number of shells per batch           ...     5.69 (81.27%)
Average number of basis functions per batch  ...     9.13 (83.02%)
Average number of large shells per batch     ...     5.27 (92.67%)
Average number of large basis fcns per batch ...     8.48 (92.82%)
Maximum spatial batch extension              ...  21.92, 19.94, 15.73 au
Average spatial batch extension              ...   4.03,  4.01,  3.28 au

Final grid set up in    0.1 sec
Final integration                            ... done (   0.1 sec)
Change in XC energy                          ...    -0.000134684
Integrated number of electrons               ...     8.999997035
Previous integrated no of electrons          ...     8.997192822

----------------
TOTAL SCF ENERGY
----------------

Total Energy       :          -75.66873851 Eh           -2059.05105 eV

Components:
Nuclear Repulsion  :            3.84856151 Eh             104.72468 eV
Electronic Energy  :          -79.51730002 Eh           -2163.77574 eV

One Electron Energy:         -111.73748017 Eh           -3040.53141 eV
Two Electron Energy:           32.22018015 Eh             876.75568 eV

Virial components:
Potential Energy   :         -150.84200843 Eh           -4104.61972 eV
Kinetic Energy     :           75.17326993 Eh            2045.56867 eV
Virial Ratio       :            2.00659102


DFT components:
N(Alpha)           :        4.999998361510 electrons
N(Beta)            :        3.999998673283 electrons
N(Total)           :        8.999997034793 electrons
E(X)               :       -6.765529814513 Eh       
E(C)               :       -0.355669483775 Eh       
E(XC)              :       -7.121199298289 Eh       

---------------
SCF CONVERGENCE
---------------

  Last Energy change         ...  -7.9694e-009  Tolerance :  1.0000e-006
  Last MAX-Density change    ...   7.1359e-006  Tolerance :  1.0000e-005
  Last RMS-Density change    ...   1.1301e-006  Tolerance :  1.0000e-006
  Last DIIS Error            ...   2.5456e-005  Tolerance :  1.0000e-006

             **** THE GBW FILE WAS UPDATED (hydroxyl_g.gbw) ****
             **** DENSITY FILE WAS UPDATED (hydroxyl_g.scfp.tmp) ****
             **** ENERGY FILE WAS UPDATED (hydroxyl_g.en.tmp) ****
----------------------
UHF SPIN CONTAMINATION
----------------------

Warning: in a DFT calculation there is little theoretical justification to 
         calculate <S**2> as in Hartree-Fock theory. We will do it anyways
         but you should keep in mind that the values have only limited relevance

Expectation value of <S**2>     :     0.752264
Ideal value S*(S+1) for S=0.5   :     0.750000
Deviation                       :     0.002264

----------------
ORBITAL ENERGIES
----------------
                 SPIN UP ORBITALS
  NO   OCC          E(Eh)            E(eV) 
   0   1.0000     -19.215756      -522.8873 
   1   1.0000      -0.985895       -26.8276 
   2   1.0000      -0.445633       -12.1263 
   3   1.0000      -0.398029       -10.8309 
   4   1.0000      -0.323887        -8.8134 
   5   0.0000       0.026132         0.7111 
   6   0.0000       0.725892        19.7525 
   7   0.0000       0.820058        22.3149 
   8   0.0000       0.868741        23.6396 
   9   0.0000       0.949484        25.8368 
  10   0.0000       1.219574        33.1863 

                 SPIN DOWN ORBITALS
  NO   OCC          E(Eh)            E(eV) 
   0   1.0000     -19.190300      -522.1946 
   1   1.0000      -0.912546       -24.8316 
   2   1.0000      -0.419261       -11.4087 
   3   1.0000      -0.294792        -8.0217 
   4   0.0000      -0.149158        -4.0588 
   5   0.0000       0.036322         0.9884 
   6   0.0000       0.725534        19.7428 
   7   0.0000       0.885509        24.0959 
   8   0.0000       0.918680        24.9985 
   9   0.0000       0.970720        26.4146 
  10   0.0000       1.254261        34.1302 

                    ********************************
                    * MULLIKEN POPULATION ANALYSIS *
                    ********************************

--------------------------------------------
MULLIKEN ATOMIC CHARGES AND SPIN POPULATIONS
--------------------------------------------
   0 O :   -0.345348    1.047728
   1 H :    0.345348   -0.047728
Sum of atomic charges         :   -0.0000000
Sum of atomic spin populations:    1.0000000

-----------------------------------------------------
MULLIKEN REDUCED ORBITAL CHARGES AND SPIN POPULATIONS
-----------------------------------------------------
CHARGE
  0 O s       :     3.990424  s :     3.990424
      pz      :     1.354924  p :     4.354924
      px      :     1.030155
      py      :     1.969845
  1 H s       :     0.654652  s :     0.654652

SPIN
  0 O s       :     0.006760  s :     0.006760
      pz      :     0.040969  p :     1.040969
      px      :     0.969845
      py      :     0.030155
  1 H s       :    -0.047728  s :    -0.047728


                     *******************************
                     * LOEWDIN POPULATION ANALYSIS *
                     *******************************

-------------------------------------------
LOEWDIN ATOMIC CHARGES AND SPIN POPULATIONS
-------------------------------------------
   0 O :   -0.275145    1.038025
   1 H :    0.275145   -0.038025

----------------------------------------------------
LOEWDIN REDUCED ORBITAL CHARGES AND SPIN POPULATIONS
----------------------------------------------------
CHARGE
  0 O s       :     3.880672  s :     3.880672
      pz      :     1.394473  p :     4.394473
      px      :     1.030155
      py      :     1.969845
  1 H s       :     0.724855  s :     0.724855

SPIN
  0 O s       :     0.004784  s :     0.004784
      pz      :     0.033240  p :     1.033240
      px      :     0.969845
      py      :     0.030155
  1 H s       :    -0.038025  s :    -0.038025


                      *****************************
                      * MAYER POPULATION ANALYSIS *
                      *****************************

  NA   - Mulliken gross atomic population
  ZA   - Total nuclear charge
  QA   - Mulliken gross atomic charge
  VA   - Mayer's total valence
  BVA  - Mayer's bonded valence
  FA   - Mayer's free valence

  ATOM       NA         ZA         QA         VA         BVA        FA
  0 O      8.3453     8.0000    -0.3453     1.8429     0.8398     1.0031
  1 H      0.6547     1.0000     0.3453     0.8422     0.8398     0.0024

  Mayer bond orders larger than 0.1
B(  0-O ,  1-H ) :   0.8398 

-------
TIMINGS
-------

Total SCF time: 0 days 0 hours 0 min 0 sec 

Total time                  ....       0.499 sec
Sum of individual times     ....       0.468 sec  ( 93.8%)

Fock matrix formation       ....       0.381 sec  ( 76.4%)
  Coulomb formation         ....       0.262 sec  ( 68.8% of F)
  XC integration            ....       0.101 sec  ( 26.5% of F)
    Basis function eval.    ....       0.008 sec  (  7.9% of XC)
    Density eval.           ....       0.016 sec  ( 15.8% of XC)
    XC-Functional eval.     ....       0.018 sec  ( 17.8% of XC)
    XC-Potential eval.      ....       0.005 sec  (  5.0% of XC)
Diagonalization             ....       0.002 sec  (  0.4%)
Density matrix formation    ....       0.000 sec  (  0.0%)
Population analysis         ....       0.011 sec  (  2.2%)
Initial guess               ....       0.000 sec  (  0.0%)
Orbital Transformation      ....       0.000 sec  (  0.0%)
Orbital Orthonormalization  ....       0.000 sec  (  0.0%)
DIIS solution               ....       0.000 sec  (  0.0%)
Grid generation             ....       0.074 sec  ( 14.8%)

-------------------------   --------------------
FINAL SINGLE POINT ENERGY       -75.668738507365
-------------------------   --------------------

   --->>> g-tensor requested, so NeedSOC=true

                            ***************************************
                            *     ORCA property calculations      *
                            ***************************************

                                    ---------------------
                                    Active property flags
                                    ---------------------
   (+) Dipole Moment
   (+) g-tensor
   (+) Spin-Orbit Integrals are needed


------------------------------------------------------------------------------
                       ORCA ELECTRIC PROPERTIES CALCULATION
------------------------------------------------------------------------------

Dipole Moment Calculation                       ... on
Quadrupole Moment Calculation                   ... off
Polarizability Calculation                      ... off
GBWName                                         ... hydroxyl_g.gbw
Electron density file                           ... hydroxyl_g.scfp.tmp

-------------
DIPOLE MOMENT
-------------
                                X             Y             Z
Electronic contribution:      0.00000       0.00000      -0.20756
Nuclear contribution   :      0.00000       0.00000       0.96986
                        -----------------------------------------
Total Dipole Moment    :      0.00000       0.00000       0.76231
                        -----------------------------------------
Magnitude (a.u.)       :      0.76231
Magnitude (Debye)      :      1.93763

------------------------------------------------------------------------------
                         ORCA SPIN-ORBIT COUPLING CALCULATION
------------------------------------------------------------------------------

GBW file                                    ... hydroxyl_g.gbw
Input density                               ... hydroxyl_g.scfp.tmp
Output integrals                            ... hydroxyl_g
Operator type                               ... Mean-field/Effective potential
   One-Electron Terms                       ... 1
   Coulomb Contribution                     ... 2
   Exchange Contribution                    ... 3
   Correlation Contribution                 ... 0
   Maximum number of centers                ... 4
Setting up the integration grid             ... done
Evaluating density on the grid              ... (NumEl=    8.997193) done
Evaluating Coulomb term semi-analytically   ... done
One-Center Exchange (+SOO)                  ... done
Evaluating the spin-orbit operator          ... done
Total time for SOC:  0.357
------------------------------------------------------------------------------
                                ORCA EPR/NMR CALCULATION
------------------------------------------------------------------------------

GBWName                      ... hydroxyl_g.gbw
Electron density file        ... hydroxyl_g.scfp.tmp
Spin density file            ... hydroxyl_g.scfr.tmp
Spin-orbit integrals         ... hydroxyl_g
Origin for angular momentum  ... Center of electronic charge
Coordinates of the origin    ...   -0.00000000   -0.00000000    0.14626597 (bohrs)
Details of the CP(SCF) procedure:
       Solver   = POPLE   
       MaxIter  =    64   
       Tolerance=   1.000e-006
       Op-0     =   0-  4 =>   5- 10
       Op-1     =   0-  3 =>   4- 10
Multiplicity                 ... 2
g-tensor                     ... 1
Using LibInt in CPSCF-CP

Calculating angular momentum integrals      ... done
Forming RHS of the CP-SCF equations         ... done

     CP-SCF ITERATION   0: 
     CP-SCF ITERATION   1:      0.000252138
     CP-SCF ITERATION   2:      0.000000395

Forming final perturbed densities           ... done

Magnetic field perturbation calculated in  0.639 sec
 Tensor is right-handed.


-------------------
ELECTRONIC G-MATRIX
-------------------

 The g-matrix: 
              2.0023945   -0.0007233    0.0000000
             -0.0007229    2.0063664    0.0000000
              0.0000000    0.0000000    2.0774320

 gel          2.0023193    2.0023193    2.0023193
 gRMC        -0.0002953   -0.0002953   -0.0002953
 gDSO(tot)    0.0000728    0.0001396    0.0001405
 gPSO(tot)    0.0001702    0.0043304    0.0752676
             ----------   ----------   ----------
 g(tot)       2.0022669    2.0064939    2.0774320 iso=  2.0287309
 Delta-g     -0.0000524    0.0041746    0.0751128 iso=  0.0264117
 Orientation: 
  X          -0.9847966    0.1737112    0.0000000
  Y          -0.1737112   -0.9847966    0.0000000
  Z           0.0000000   -0.0000000    1.0000000

Notes:  (1) The principal values are square roots of the eigenvalues of gT*g
        (2) Orientations are eigenvectors of gT*g
        (3) Individual contributions are projections of the full matrices onto the eigenvectors of gT*g


Timings for individual modules:

Sum of individual times         ...        1.882 sec (=   0.031 min)
GTO integral calculation        ...        0.212 sec (=   0.004 min)  11.3 %
Spin-Orbit-Coupling Matrices    ...        0.354 sec (=   0.006 min)  18.8 %
SCF iterations                  ...        0.522 sec (=   0.009 min)  27.7 %
SCF-level EPR/NMR calculation   ...        0.794 sec (=   0.013 min)  42.2 %
                             ****ORCA TERMINATED NORMALLY****
TOTAL RUN TIME: 0 days 0 hours 0 minutes 2 seconds 65 msec
