
                                 *****************
                                 * O   R   C   A *
                                 *****************

           --- An Ab Initio, DFT and Semiempirical electronic structure package ---

                  #######################################################
                  #                        -***-                        #
                  #  Department of molecular theory and spectroscopy    #
                  #              Directorship: Frank Neese              #
                  # Max Planck Institute for Chemical Energy Conversion #
                  #                  D-45470 Muelheim/Ruhr              #
                  #                       Germany                       #
                  #                                                     #
                  #                  All rights reserved                #
                  #                        -***-                        #
                  #######################################################


                         Program Version 3.0.3 -  RELEASE  -


 With contributions from (in alphabetic order):
   Ute Becker             : Parallelization
   Dmytro Bykov           : SCF Hessian
   Dmitry Ganyushin       : Spin-Orbit,Spin-Spin,Magnetic field MRCI
   Andreas Hansen         : Spin unrestricted coupled pair/coupled cluster methods
   Dimitrios Liakos       : Extrapolation schemes; parallel MDCI
   Robert Izsak           : Overlap fitted RIJCOSX, COSX-SCS-MP3
   Christian Kollmar      : KDIIS, OOCD, Brueckner-CCSD(T), CCSD density
   Simone Kossmann        : Meta GGA functionals, TD-DFT gradient, OOMP2, MP2 Hessian
   Taras Petrenko         : DFT Hessian,TD-DFT gradient, ASA and ECA modules, normal mode analysis, Resonance Raman, ABS, FL, XAS/XES, NRVS
   Christoph Reimann      : Effective Core Potentials
   Michael Roemelt        : Restricted open shell CIS
   Christoph Riplinger    : Improved optimizer, TS searches, QM/MM, DLPNO-CCSD
   Barbara Sandhoefer     : DKH picture change effects
   Igor Schapiro          : Molecular dynamics
   Kantharuban Sivalingam : CASSCF convergence, NEVPT2
   Boris Wezisla          : Elementary symmetry handling
   Frank Wennmohs         : Technical directorship


 We gratefully acknowledge several colleagues who have allowed us to
 interface, adapt or use parts of their codes:
   Stefan Grimme, W. Hujo, H. Kruse, T. Risthaus : VdW corrections, initial TS optimization,
                                                   DFT functionals, gCP
   Ed Valeev                                     : LibInt (2-el integral package), F12 methods
   Garnet Chan, S. Sharma, R. Olivares           : DMRG
   Ulf Ekstrom                                   : XCFun DFT Library
   Mihaly Kallay                                 : mrcc  (arbitrary order and MRCC methods)
   Andreas Klamt, Michael Diedenhofen            : otool_cosmo (COSMO solvation model)
   Frank Weinhold                                : gennbo (NPA and NBO analysis)
   Christopher J. Cramer and Donald G. Truhlar   : smd solvation model


 Your calculation uses the libint2 library for the computation of 2-el integrals
 For citations please refer to: http://libint.valeyev.net

 This ORCA versions uses:
   CBLAS   interface :  Fast vector & matrix operations
   LAPACKE interface :  Fast linear algebra routines


Your calculation utilizes the basis: 6-31G
Cite in your paper:
H - He: W.J. Hehre, R. Ditchfield and J.A. Pople, J. Chem. Phys. 56,
Li - Ne: 2257 (1972).  Note: Li and B come from J.D. Dill and J.A.
         Pople, J. Chem. Phys. 62, 2921 (1975).
Na - Ar: M.M. Francl, W.J. Pietro, W.J. Hehre, J.S. Binkley, M.S. Gordon,
         D.J. DeFrees and J.A. Pople, J. Chem. Phys. 77, 3654 (1982)
K  - Zn: V. Rassolov, J.A. Pople, M. Ratner and T.L. Windus, J. Chem. Phys.
         (accepted, 1998)
Note: He and Ne are unpublished basis sets taken from the Gaussian program

================================================================================
                                        WARNINGS
                       Please study these warnings very carefully!
================================================================================
Now building the actual basis set


INFO   : the flag for use of LIBINT has been found!

================================================================================
                                       INPUT FILE
================================================================================
NAME = hydroxyl_HO.oif
|  1> ! UKS B3LYP 6-31G
|  2> *xyz 0 2
|  3> H 0 0 1.1
|  4> O 0 0 0
|  5> *
|  6> 
|  7> %eprnmr
|  8>   gtensor 1
|  9>   Nuclei = all H {aiso, adip, aorb}
| 10> end
| 11> 
| 12>                          ****END OF INPUT****
================================================================================

                       ****************************
                       * Single Point Calculation *
                       ****************************

---------------------------------
CARTESIAN COORDINATES (ANGSTROEM)
---------------------------------
  H      0.000000    0.000000    1.100000
  O      0.000000    0.000000    0.000000

----------------------------
CARTESIAN COORDINATES (A.U.)
----------------------------
  NO LB      ZA    FRAG    MASS        X           Y           Z
   0 H     1.0000    0     1.008          0.000000000000000          0.000000000000000          2.078698747313377
   1 O     8.0000    0    15.999          0.000000000000000          0.000000000000000          0.000000000000000

--------------------------------
INTERNAL COORDINATES (ANGSTROEM)
--------------------------------
 H      0   0   0   0.000000     0.000     0.000
 O      1   0   0   1.100000     0.000     0.000

---------------------------
INTERNAL COORDINATES (A.U.)
---------------------------
 H      0   0   0   0.000000     0.000     0.000
 O      1   0   0   2.078699     0.000     0.000

---------------------
BASIS SET INFORMATION
---------------------
There are 2 groups of distinct atoms

 Group   1 Type H   : 4s contracted to 2s pattern {31}
 Group   2 Type O   : 10s4p contracted to 3s2p pattern {631/31}

Atom   0H    basis set group =>   1
Atom   1O    basis set group =>   2
------------------------------------------------------------------------------
                           ORCA GTO INTEGRAL CALCULATION
------------------------------------------------------------------------------

                         BASIS SET STATISTICS AND STARTUP INFO

 # of primitive gaussian shells          ...   18
 # of primitive gaussian functions       ...   26
 # of contracted shell                   ...    7
 # of contracted basis functions         ...   11
 Highest angular momentum                ...    1
 Maximum contraction depth               ...    6
 Integral package used                   ... LIBINT
 Integral threshhold            Thresh   ... 1.000e-010
 Primitive cut-off              TCut     ... 1.000e-011


                              INTEGRAL EVALUATION

 One electron integrals                  ... done
 Pre-screening matrix                    ... done
 Shell pair data                         ... done (   0.008 sec)

Timings:
 Total evaluation time               ...     0.098 sec (   0.002 min)
 One electron matrix time            ...     0.016 sec (   0.000 min) = 16.3%
 Schwartz matrix evaluation time     ...     0.169 sec (   0.003 min) =172.4%

-------------------------------------------------------------------------------
                                 ORCA SCF
-------------------------------------------------------------------------------

------------
SCF SETTINGS
------------
Hamiltonian:
 Density Functional     Method          .... DFT(GTOs)
 Exchange Functional    Exchange        .... B88
   X-Alpha parameter    XAlpha          ....  0.666667
   Becke's b parameter  XBeta           ....  0.004200
 Correlation Functional Correlation     .... LYP
 LDA part of GGA corr.  LDAOpt          .... VWN-5
 Gradients option       PostSCFGGA      .... off
 Hybrid DFT is turned on
   Fraction HF Exchange ScalHFX         ....  0.200000
   Scaling of DF-GGA-X  ScalDFX         ....  0.720000
   Scaling of DF-GGA-C  ScalDFC         ....  0.810000
   Scaling of DF-LDA-C  ScalLDAC        ....  1.000000
   Perturbative correction              ....  0.000000
   NL short-range parameter             ....  4.800000


General Settings:
 Integral files         IntName         .... hydroxyl_HO
 Hartree-Fock type      HFTyp           .... UHF
 Total Charge           Charge          ....    0
 Multiplicity           Mult            ....    2
 Number of Electrons    NEL             ....    9
 Basis Dimension        Dim             ....   11
 Nuclear Repulsion      ENuc            ....      3.8485615149 Eh

Convergence Acceleration:
 DIIS                   CNVDIIS         .... on
   Start iteration      DIISMaxIt       ....    12
   Startup error        DIISStart       ....  0.200000
   # of expansion vecs  DIISMaxEq       ....     5
   Bias factor          DIISBfac        ....   1.050
   Max. coefficient     DIISMaxC        ....  10.000
 Newton-Raphson         CNVNR           .... off
 SOSCF                  CNVSOSCF        .... off
 Level Shifting         CNVShift        .... on
   Level shift para.    LevelShift      ....    0.2500
   Turn off err/grad.   ShiftErr        ....    0.0010
 Zerner damping         CNVZerner       .... off
 Static damping         CNVDamp         .... on
   Fraction old density DampFac         ....    0.7000
   Max. Damping (<1)    DampMax         ....    0.9800
   Min. Damping (>=0)   DampMin         ....    0.0000
   Turn off err/grad.   DampErr         ....    0.1000
 Fernandez-Rico         CNVRico         .... off

SCF Procedure:
 Maximum # iterations   MaxIter         ....   125
 SCF integral mode      SCFMode         .... Direct
   Integral package                     .... LIBINT
 Reset frequeny         DirectResetFreq ....    20
 Integral Threshold     Thresh          .... 1.000e-010 Eh
 Primitive CutOff       TCut            .... 1.000e-011 Eh

Convergence Tolerance:
 Convergence Check Mode ConvCheckMode   .... Total+1el-Energy
 Energy Change          TolE            .... 1.000e-006 Eh
 1-El. energy change                    .... 1.000e-003 Eh
 DIIS Error             TolErr          .... 1.000e-006


Diagonalization of the overlap matrix:
Smallest eigenvalue                        ... 1.071e-001
Time for diagonalization                   ...    0.086 sec
Threshold for overlap eigenvalues          ... 1.000e-008
Number of eigenvalues below threshold      ... 0
Time for construction of square roots      ...    0.231 sec
Total time needed                          ...    0.317 sec

-------------------
DFT GRID GENERATION
-------------------

General Integration Accuracy     IntAcc      ...  4.340
Radial Grid Type                 RadialGrid  ... Gauss-Chebyshev
Angular Grid (max. acc.)         AngularGrid ... Lebedev-110
Angular grid pruning method      GridPruning ... 3 (G Style)
Weight generation scheme         WeightScheme... Becke
Basis function cutoff            BFCut       ...   1.0000e-010
Integration weight cutoff        WCut        ...   1.0000e-014
Grids for H and He will be reduced by one unit

# of grid points (after initial pruning)     ...   2510 (   0.0 sec)
# of grid points (after weights+screening)   ...   2486 (   0.0 sec)
nearest neighbour list constructed           ...    0.0 sec
Grid point re-assignment to atoms done       ...    0.0 sec
Grid point division into batches done        ...    0.0 sec
Reduced shell lists constructed in    0.0 sec

Total number of grid points                  ...     2486
Total number of batches                      ...       40
Average number of points per batch           ...       62
Average number of grid points per atom       ...     1243
Average number of shells per batch           ...     6.44 (91.99%)
Average number of basis functions per batch  ...    10.34 (94.01%)
Average number of large shells per batch     ...     6.05 (93.94%)
Average number of large basis fcns per batch ...     9.80 (94.81%)
Maximum spatial batch extension              ...  17.83, 25.65, 18.14 au
Average spatial batch extension              ...   6.80,  8.46,  5.66 au

Time for grid setup =    0.125 sec

------------------------------
INITIAL GUESS: MODEL POTENTIAL
------------------------------
Loading Hartree-Fock densities                     ... done
Calculating cut-offs                               ... done
Setting up the integral package                    ... done
Initializing the effective Hamiltonian             ... done
Starting the Coulomb interaction                   ... done (   0.0 sec)
Reading the grid                                   ... done
Mapping shells                                     ... done
Starting the XC term evaluation                    ... done (   0.0 sec)
  promolecular density results
     # of electrons  =      8.998404741
     EX              =     -8.394023673
     EC              =     -0.302553309
     EX+EC           =     -8.696576982
Transforming the Hamiltonian                       ... done (   0.0 sec)
Diagonalizing the Hamiltonian                      ... done (   0.0 sec)
Back transforming the eigenvectors                 ... done (   0.0 sec)
Now organizing SCF variables                       ... done
                      ------------------
                      INITIAL GUESS DONE (   0.3 sec)
                      ------------------
--------------
SCF ITERATIONS
--------------
ITER       Energy         Delta-E        Max-DP      RMS-DP      [F,P]     Damp
               ***  Starting incremental Fock matrix formation  ***
  0    -75.6445043265   0.000000000000 0.02950848  0.00491836  0.1857816 0.7000
  1    -75.6554846316  -0.010980305089 0.02103441  0.00335755  0.0967926 0.7000
                               ***Turning on DIIS***
  2    -75.6599248898  -0.004440258186 0.03626347  0.00553865  0.0374164 0.0000
  3    -75.6668293464  -0.006904456681 0.01251051  0.00223912  0.0494739 0.0000
  4    -75.6684964380  -0.001667091549 0.00336489  0.00055562  0.0083984 0.0000
  5    -75.6685756920  -0.000079254005 0.00176800  0.00026199  0.0016553 0.0000
  6    -75.6685919163  -0.000016224326 0.00146947  0.00023341  0.0003956 0.0000
  7    -75.6685984572  -0.000006540896 0.00047983  0.00007886  0.0000261 0.0000
                 **** Energy Check signals convergence ****

               *****************************************************
               *                     SUCCESS                       *
               *           SCF CONVERGED AFTER   8 CYCLES          *
               *****************************************************

Setting up the final grid:

General Integration Accuracy     IntAcc      ...  4.670
Radial Grid Type                 RadialGrid  ... Gauss-Chebyshev
Angular Grid (max. acc.)         AngularGrid ... Lebedev-302
Angular grid pruning method      GridPruning ... 3 (G Style)
Weight generation scheme         WeightScheme... Becke
Basis function cutoff            BFCut       ...   1.0000e-010
Integration weight cutoff        WCut        ...   1.0000e-014
Grids for H and He will be reduced by one unit

# of grid points (after initial pruning)     ...   9606 (   0.0 sec)
# of grid points (after weights+screening)   ...   9579 (   0.0 sec)
nearest neighbour list constructed           ...    0.0 sec
Grid point re-assignment to atoms done       ...    0.0 sec
Grid point division into batches done        ...    0.0 sec
Reduced shell lists constructed in    0.1 sec

Total number of grid points                  ...     9579
Total number of batches                      ...      150
Average number of points per batch           ...       63
Average number of grid points per atom       ...     4790
Average number of shells per batch           ...     5.90 (84.30%)
Average number of basis functions per batch  ...     9.44 (85.79%)
Average number of large shells per batch     ...     5.38 (91.13%)
Average number of large basis fcns per batch ...     8.66 (91.79%)
Maximum spatial batch extension              ...  20.50, 20.12, 18.36 au
Average spatial batch extension              ...   4.72,  4.52,  3.66 au

Final grid set up in    0.1 sec
Final integration                            ... done (   0.1 sec)
Change in XC energy                          ...    -0.000136060
Integrated number of electrons               ...     8.999997035
Previous integrated no of electrons          ...     8.997192759

----------------
TOTAL SCF ENERGY
----------------

Total Energy       :          -75.66873545 Eh           -2059.05097 eV

Components:
Nuclear Repulsion  :            3.84856151 Eh             104.72468 eV
Electronic Energy  :          -79.51729696 Eh           -2163.77565 eV

One Electron Energy:         -111.73743809 Eh           -3040.53027 eV
Two Electron Energy:           32.22014113 Eh             876.75461 eV

Virial components:
Potential Energy   :         -150.84190793 Eh           -4104.61699 eV
Kinetic Energy     :           75.17317248 Eh            2045.56602 eV
Virial Ratio       :            2.00659228


DFT components:
N(Alpha)           :        4.999998361432 electrons
N(Beta)            :        3.999998673558 electrons
N(Total)           :        8.999997034991 electrons
E(X)               :       -6.765504786486 Eh       
E(C)               :       -0.355672998521 Eh       
E(XC)              :       -7.121177785007 Eh       

---------------
SCF CONVERGENCE
---------------

  Last Energy change         ...  -9.3095e-007  Tolerance :  1.0000e-006
  Last MAX-Density change    ...   2.7422e-004  Tolerance :  1.0000e-005
  Last RMS-Density change    ...   4.3687e-005  Tolerance :  1.0000e-006
  Last DIIS Error            ...   1.4883e-005  Tolerance :  1.0000e-006

             **** THE GBW FILE WAS UPDATED (hydroxyl_HO.gbw) ****
             **** DENSITY FILE WAS UPDATED (hydroxyl_HO.scfp.tmp) ****
             **** ENERGY FILE WAS UPDATED (hydroxyl_HO.en.tmp) ****
----------------------
UHF SPIN CONTAMINATION
----------------------

Warning: in a DFT calculation there is little theoretical justification to 
         calculate <S**2> as in Hartree-Fock theory. We will do it anyways
         but you should keep in mind that the values have only limited relevance

Expectation value of <S**2>     :     0.752192
Ideal value S*(S+1) for S=0.5   :     0.750000
Deviation                       :     0.002192

----------------
ORBITAL ENERGIES
----------------
                 SPIN UP ORBITALS
  NO   OCC          E(Eh)            E(eV) 
   0   1.0000     -19.215732      -522.8867 
   1   1.0000      -0.985837       -26.8260 
   2   1.0000      -0.445579       -12.1248 
   3   1.0000      -0.397997       -10.8300 
   4   1.0000      -0.323855        -8.8125 
   5   0.0000       0.026087         0.7099 
   6   0.0000       0.725717        19.7478 
   7   0.0000       0.820065        22.3151 
   8   0.0000       0.868761        23.6402 
   9   0.0000       0.949533        25.8381 
  10   0.0000       1.219596        33.1869 

                 SPIN DOWN ORBITALS
  NO   OCC          E(Eh)            E(eV) 
   0   1.0000     -19.190352      -522.1960 
   1   1.0000      -0.912600       -24.8331 
   2   1.0000      -0.419299       -11.4097 
   3   1.0000      -0.294824        -8.0226 
   4   0.0000      -0.149216        -4.0604 
   5   0.0000       0.036353         0.9892 
   6   0.0000       0.725702        19.7474 
   7   0.0000       0.885512        24.0960 
   8   0.0000       0.918596        24.9963 
   9   0.0000       0.970672        26.4133 
  10   0.0000       1.254230        34.1293 

                    ********************************
                    * MULLIKEN POPULATION ANALYSIS *
                    ********************************

--------------------------------------------
MULLIKEN ATOMIC CHARGES AND SPIN POPULATIONS
--------------------------------------------
   0 H :    0.345347   -0.046841
   1 O :   -0.345347    1.046841
Sum of atomic charges         :   -0.0000000
Sum of atomic spin populations:    1.0000000

-----------------------------------------------------
MULLIKEN REDUCED ORBITAL CHARGES AND SPIN POPULATIONS
-----------------------------------------------------
CHARGE
  0 H s       :     0.654653  s :     0.654653
  1 O s       :     3.990423  s :     3.990423
      pz      :     1.354924  p :     4.354924
      px      :     1.006298
      py      :     1.993702

SPIN
  0 H s       :    -0.046841  s :    -0.046841
  1 O s       :     0.006773  s :     0.006773
      pz      :     0.040068  p :     1.040068
      px      :     0.993702
      py      :     0.006298


                     *******************************
                     * LOEWDIN POPULATION ANALYSIS *
                     *******************************

-------------------------------------------
LOEWDIN ATOMIC CHARGES AND SPIN POPULATIONS
-------------------------------------------
   0 H :    0.275139   -0.037331
   1 O :   -0.275139    1.037331

----------------------------------------------------
LOEWDIN REDUCED ORBITAL CHARGES AND SPIN POPULATIONS
----------------------------------------------------
CHARGE
  0 H s       :     0.724861  s :     0.724861
  1 O s       :     3.880669  s :     3.880669
      pz      :     1.394470  p :     4.394470
      px      :     1.006298
      py      :     1.993702

SPIN
  0 H s       :    -0.037331  s :    -0.037331
  1 O s       :     0.004833  s :     0.004833
      pz      :     0.032499  p :     1.032499
      px      :     0.993702
      py      :     0.006298


                      *****************************
                      * MAYER POPULATION ANALYSIS *
                      *****************************

  NA   - Mulliken gross atomic population
  ZA   - Total nuclear charge
  QA   - Mulliken gross atomic charge
  VA   - Mayer's total valence
  BVA  - Mayer's bonded valence
  FA   - Mayer's free valence

  ATOM       NA         ZA         QA         VA         BVA        FA
  0 H      0.6547     1.0000     0.3453     0.8422     0.8399     0.0023
  1 O      8.3453     8.0000    -0.3453     1.8429     0.8399     1.0030

  Mayer bond orders larger than 0.1
B(  0-H ,  1-O ) :   0.8399 

-------
TIMINGS
-------

Total SCF time: 0 days 0 hours 0 min 2 sec 

Total time                  ....       2.052 sec
Sum of individual times     ....       2.390 sec  (116.5%)

Fock matrix formation       ....       1.801 sec  ( 87.8%)
  Coulomb formation         ....       1.128 sec  ( 62.6% of F)
  XC integration            ....       0.318 sec  ( 17.7% of F)
    Basis function eval.    ....       0.024 sec  (  7.5% of XC)
    Density eval.           ....       0.050 sec  ( 15.7% of XC)
    XC-Functional eval.     ....       0.093 sec  ( 29.2% of XC)
    XC-Potential eval.      ....       0.013 sec  (  4.1% of XC)
Diagonalization             ....       0.006 sec  (  0.3%)
Density matrix formation    ....       0.001 sec  (  0.0%)
Population analysis         ....       0.029 sec  (  1.4%)
Initial guess               ....       0.322 sec  ( 15.7%)
Orbital Transformation      ....       0.000 sec  (  0.0%)
Orbital Orthonormalization  ....       0.000 sec  (  0.0%)
DIIS solution               ....       0.043 sec  (  2.1%)
Grid generation             ....       0.188 sec  (  9.2%)

-------------------------   --------------------
FINAL SINGLE POINT ENERGY       -75.668735448114
-------------------------   --------------------

   --->>> g-tensor requested, so NeedSOC=true

                            ***************************************
                            *     ORCA property calculations      *
                            ***************************************

                                    ---------------------
                                    Active property flags
                                    ---------------------
   (+) Dipole Moment
   (+) g-tensor
   (+) Nuclear properties (Hyperfine,Quadrupole,Chemical Shift)
   (+) Spin-Orbit Integrals are needed


------------------------------------------------------------------------------
                       ORCA ELECTRIC PROPERTIES CALCULATION
------------------------------------------------------------------------------

Dipole Moment Calculation                       ... on
Quadrupole Moment Calculation                   ... off
Polarizability Calculation                      ... off
GBWName                                         ... hydroxyl_HO.gbw
Electron density file                           ... hydroxyl_HO.scfp.tmp

-------------
DIPOLE MOMENT
-------------
                                X             Y             Z
Electronic contribution:     -0.00000      -0.00000      -0.20757
Nuclear contribution   :      0.00000       0.00000       0.96986
                        -----------------------------------------
Total Dipole Moment    :     -0.00000      -0.00000       0.76229
                        -----------------------------------------
Magnitude (a.u.)       :      0.76229
Magnitude (Debye)      :      1.93760

------------------------------------------------------------------------------
                         ORCA SPIN-ORBIT COUPLING CALCULATION
------------------------------------------------------------------------------

GBW file                                    ... hydroxyl_HO.gbw
Input density                               ... hydroxyl_HO.scfp.tmp
Output integrals                            ... hydroxyl_HO
Operator type                               ... Mean-field/Effective potential
   One-Electron Terms                       ... 1
   Coulomb Contribution                     ... 2
   Exchange Contribution                    ... 3
   Correlation Contribution                 ... 0
   Maximum number of centers                ... 4
Setting up the integration grid             ... done
Evaluating density on the grid              ... (NumEl=    8.997193) done
Evaluating Coulomb term semi-analytically   ... done
One-Center Exchange (+SOO)                  ... done
Evaluating the spin-orbit operator          ... done
Total time for SOC:  0.495
------------------------------------------------------------------------------
                                ORCA EPR/NMR CALCULATION
------------------------------------------------------------------------------

GBWName                      ... hydroxyl_HO.gbw
Electron density file        ... hydroxyl_HO.scfp.tmp
Spin density file            ... hydroxyl_HO.scfr.tmp
Spin-orbit integrals         ... hydroxyl_HO
Origin for angular momentum  ... Center of electronic charge
Coordinates of the origin    ...    0.00000000    0.00000000    0.14626711 (bohrs)
Details of the CP(SCF) procedure:
       Solver   = POPLE   
       MaxIter  =    64   
       Tolerance=   1.000e-006
       Op-0     =   0-  4 =>   5- 10
       Op-1     =   0-  3 =>   4- 10
Multiplicity                 ... 2
g-tensor                     ... 1
Number of nuclei for epr/nmr ... 1
   Nucleus:   0H 
       Hyperfine : Isotope=    1 I=   0.500 P= 533.551
       Quadrupole: Isotope=    2 I=   1.000 Q=   0.003
       Spin-Orbit: Zeff=   1.000
       rho(0)=N f(grad)=N a(iso)=Y a(dip)=Y a(orb)=Y sigma(nmr)=N
Using LibInt in CPSCF-CP

Calculating angular momentum integrals      ... done
Forming RHS of the CP-SCF equations         ... done

     CP-SCF ITERATION   0: 
     CP-SCF ITERATION   1:      0.000185935
     CP-SCF ITERATION   2:      0.000000259

Forming final perturbed densities           ... done

Magnetic field perturbation calculated in  0.905 sec
 Tensor is right-handed.


-------------------
ELECTRONIC G-MATRIX
-------------------

 The g-matrix: 
              2.0022899   -0.0003350   -0.0000000
             -0.0003350    2.0064710   -0.0000000
             -0.0000000   -0.0000000    2.0775949

 gel          2.0023193    2.0023193    2.0023193
 gRMC        -0.0002951   -0.0002951   -0.0002951
 gDSO(tot)    0.0000727    0.0001395    0.0001404
 gPSO(tot)    0.0001663    0.0043339    0.0754303
             ----------   ----------   ----------
 g(tot)       2.0022632    2.0064977    2.0775949 iso=  2.0287853
 Delta-g     -0.0000561    0.0041784    0.0752756 iso=  0.0264660
 Orientation: 
  X          -0.9968457    0.0793635   -0.0000000
  Y          -0.0793635   -0.9968457   -0.0000000
  Z          -0.0000000   -0.0000000    1.0000000

Notes:  (1) The principal values are square roots of the eigenvalues of gT*g
        (2) Orientations are eigenvectors of gT*g
        (3) Individual contributions are projections of the full matrices onto the eigenvectors of gT*g


-----------------------------------------
ELECTRIC AND MAGNETIC HYPERFINE STRUCTURE
-----------------------------------------

 -----------------------------------------------------------
 Nucleus   0H : A:ISTP=    1 I=  0.5 P=533.5514 MHz/au**3
                Q:ISTP=    2 I=  1.0 Q=  0.0029 barn     
 -----------------------------------------------------------
 Solving for nuclear perturbation:
Using LibInt in CPSCF-CP

Calculating nucleus orbit integrals         ... done
Forming RHS of the CP-SCF equations         ... done

     CP-SCF ITERATION   0: 
     CP-SCF ITERATION   1:      0.000008203
     CP-SCF ITERATION   2:      0.000000128

Forming final perturbed densities           ... done

Using FinalGrid as integration grid:         ... finished setting up the grid
Time for grid setup =    0.002 sec

 Tensor is right-handed.

 Raw HFC matrix (all values in MHz): 
 ------------------------------
              -116.4024               1.9257               0.0000
                 1.9256            -140.4367               0.0000
                 0.0000              -0.0000              -9.8429

 A(FC)         -90.3419             -90.3419             -90.3419
 A(SD)          76.2746             -25.8933             -50.3814
 A(ORB+DIA)      4.2244              -0.0140               0.1333    A(PC) =   1.4479
 A(ORB)          4.2347              -0.0167               0.1354    A(PC) =   1.4511
 A(DIA)         -0.0103               0.0028              -0.0022    A(PC) =  -0.0033
             ----------           ----------           ----------
 A(Tot)         -9.8429            -116.2491            -140.5900    A(iso)=  -88.8940
 Orientation: 
  X           0.0000000           -0.9968458            0.0793632
  Y           0.0000000           -0.0793632           -0.9968458
  Z           1.0000000            0.0000000           -0.0000000

----------------------------------------------------------------------------
                           ORCA EULER ANGLE PROGRAM
----------------------------------------------------------------------------

Only g-tensor available        -->  using g-tensor as reference tensor

Reference tensor               ...  g

g-tensor ordering              ...  |g_min> --> |gx>
                                    |g_mid> --> |gy>
                                    |g_max> --> |gz>

A- and EFG-tensor ordering     ...  the axes |Ax>, |Qx>, |Ay>, etc. are assigned
                                    such that the Euler rotation is minimal. You
                                    can find the respective eigenvalues as Ax,
                                    EFGx, Ay, etc. in the tables below.
                                    The relation of |Ax>, |Ay>,  etc. to Amin, Amid, etc.
                                    (as printed in the ORCA EPR/NMR CALCULATION Output)
                                    is obtained in the detailed printout.

Euler rotation around          ...  z - y - z
   First rotation              -->  by alpha around z
   Second rotation             -->  by beta around y'
   Third rotation              -->  by gamma around z''
   Positive / Negative angle   -->  clockwise / counterclockwise rotation

Plot EFG-tensors                    (-)
Plot HFC-tensors                    (-)
Detailed Printout                   (-)

-------------------------------------------------------------------------
          Euler rotation of hyperfine tensor to g-tensor
-------------------------------------------------------------------------

-------------------------------------------------------------------
 Atom  |   Alpha    Beta    Gamma   |   Ax       Ay       Az 
       |          [degrees]         |           [MHz]         
-------------------------------------------------------------------
  0H        0.0      0.0      0.0    -116.25  -140.59    -9.84
-------------------------------------------------------------------


Timings for individual modules:

Sum of individual times         ...        7.033 sec (=   0.117 min)
GTO integral calculation        ...        0.552 sec (=   0.009 min)   7.8 %
Spin-Orbit-Coupling Matrices    ...        0.491 sec (=   0.008 min)   7.0 %
SCF iterations                  ...        3.028 sec (=   0.050 min)  43.1 %
SCF-level EPR/NMR calculation   ...        2.962 sec (=   0.049 min)  42.1 %
                             ****ORCA TERMINATED NORMALLY****
TOTAL RUN TIME: 0 days 0 hours 0 minutes 7 seconds 729 msec
