
                                 *****************
                                 * O   R   C   A *
                                 *****************

           --- An Ab Initio, DFT and Semiempirical electronic structure package ---

                  #######################################################
                  #                        -***-                        #
                  #  Department of molecular theory and spectroscopy    #
                  #              Directorship: Frank Neese              #
                  # Max Planck Institute for Chemical Energy Conversion #
                  #                  D-45470 Muelheim/Ruhr              #
                  #                       Germany                       #
                  #                                                     #
                  #                  All rights reserved                #
                  #                        -***-                        #
                  #######################################################


                         Program Version 3.0.3 -  RELEASE  -


 With contributions from (in alphabetic order):
   Ute Becker             : Parallelization
   Dmytro Bykov           : SCF Hessian
   Dmitry Ganyushin       : Spin-Orbit,Spin-Spin,Magnetic field MRCI
   Andreas Hansen         : Spin unrestricted coupled pair/coupled cluster methods
   Dimitrios Liakos       : Extrapolation schemes; parallel MDCI
   Robert Izsak           : Overlap fitted RIJCOSX, COSX-SCS-MP3
   Christian Kollmar      : KDIIS, OOCD, Brueckner-CCSD(T), CCSD density
   Simone Kossmann        : Meta GGA functionals, TD-DFT gradient, OOMP2, MP2 Hessian
   Taras Petrenko         : DFT Hessian,TD-DFT gradient, ASA and ECA modules, normal mode analysis, Resonance Raman, ABS, FL, XAS/XES, NRVS
   Christoph Reimann      : Effective Core Potentials
   Michael Roemelt        : Restricted open shell CIS
   Christoph Riplinger    : Improved optimizer, TS searches, QM/MM, DLPNO-CCSD
   Barbara Sandhoefer     : DKH picture change effects
   Igor Schapiro          : Molecular dynamics
   Kantharuban Sivalingam : CASSCF convergence, NEVPT2
   Boris Wezisla          : Elementary symmetry handling
   Frank Wennmohs         : Technical directorship


 We gratefully acknowledge several colleagues who have allowed us to
 interface, adapt or use parts of their codes:
   Stefan Grimme, W. Hujo, H. Kruse, T. Risthaus : VdW corrections, initial TS optimization,
                                                   DFT functionals, gCP
   Ed Valeev                                     : LibInt (2-el integral package), F12 methods
   Garnet Chan, S. Sharma, R. Olivares           : DMRG
   Ulf Ekstrom                                   : XCFun DFT Library
   Mihaly Kallay                                 : mrcc  (arbitrary order and MRCC methods)
   Andreas Klamt, Michael Diedenhofen            : otool_cosmo (COSMO solvation model)
   Frank Weinhold                                : gennbo (NPA and NBO analysis)
   Christopher J. Cramer and Donald G. Truhlar   : smd solvation model


 Your calculation uses the libint2 library for the computation of 2-el integrals
 For citations please refer to: http://libint.valeyev.net

 This ORCA versions uses:
   CBLAS   interface :  Fast vector & matrix operations
   LAPACKE interface :  Fast linear algebra routines


Your calculation utilizes the basis: 6-31G
Cite in your paper:
H - He: W.J. Hehre, R. Ditchfield and J.A. Pople, J. Chem. Phys. 56,
Li - Ne: 2257 (1972).  Note: Li and B come from J.D. Dill and J.A.
         Pople, J. Chem. Phys. 62, 2921 (1975).
Na - Ar: M.M. Francl, W.J. Pietro, W.J. Hehre, J.S. Binkley, M.S. Gordon,
         D.J. DeFrees and J.A. Pople, J. Chem. Phys. 77, 3654 (1982)
K  - Zn: V. Rassolov, J.A. Pople, M. Ratner and T.L. Windus, J. Chem. Phys.
         (accepted, 1998)
Note: He and Ne are unpublished basis sets taken from the Gaussian program

================================================================================
                                        WARNINGS
                       Please study these warnings very carefully!
================================================================================
Now building the actual basis set


INFO   : the flag for use of LIBINT has been found!

================================================================================
                                       INPUT FILE
================================================================================
NAME = hydroxyl_098.oif
|  1> ! UKS B3LYP 6-31G
|  2> *xyz 0 2
|  3> O 0 0 0
|  4> H 0 0 0.98
|  5> *
|  6> 
|  7> %eprnmr
|  8>   gtensor 1
|  9>   Nuclei = all H {aiso, adip, aorb, fgrad, rho}
| 10> endd                         ****END OF INPUT****
================================================================================

                       ****************************
                       * Single Point Calculation *
                       ****************************

---------------------------------
CARTESIAN COORDINATES (ANGSTROEM)
---------------------------------
  O      0.000000    0.000000    0.000000
  H      0.000000    0.000000    0.980000

----------------------------
CARTESIAN COORDINATES (A.U.)
----------------------------
  NO LB      ZA    FRAG    MASS        X           Y           Z
   0 O     8.0000    0    15.999          0.000000000000000          0.000000000000000          0.000000000000000
   1 H     1.0000    0     1.008          0.000000000000000          0.000000000000000          1.851931611242827

--------------------------------
INTERNAL COORDINATES (ANGSTROEM)
--------------------------------
 O      0   0   0   0.000000     0.000     0.000
 H      1   0   0   0.980000     0.000     0.000

---------------------------
INTERNAL COORDINATES (A.U.)
---------------------------
 O      0   0   0   0.000000     0.000     0.000
 H      1   0   0   1.851932     0.000     0.000

---------------------
BASIS SET INFORMATION
---------------------
There are 2 groups of distinct atoms

 Group   1 Type O   : 10s4p contracted to 3s2p pattern {631/31}
 Group   2 Type H   : 4s contracted to 2s pattern {31}

Atom   0O    basis set group =>   1
Atom   1H    basis set group =>   2
------------------------------------------------------------------------------
                           ORCA GTO INTEGRAL CALCULATION
------------------------------------------------------------------------------

                         BASIS SET STATISTICS AND STARTUP INFO

 # of primitive gaussian shells          ...   18
 # of primitive gaussian functions       ...   26
 # of contracted shell                   ...    7
 # of contracted basis functions         ...   11
 Highest angular momentum                ...    1
 Maximum contraction depth               ...    6
 Integral package used                   ... LIBINT
 Integral threshhold            Thresh   ... 1.000e-010
 Primitive cut-off              TCut     ... 1.000e-011


                              INTEGRAL EVALUATION

 One electron integrals                  ... done
 Pre-screening matrix                    ... done
 Shell pair data                         ... done (   0.000 sec)

-------------------------------------------------------------------------------
                                 ORCA SCF
-------------------------------------------------------------------------------

------------
SCF SETTINGS
------------
Hamiltonian:
 Density Functional     Method          .... DFT(GTOs)
 Exchange Functional    Exchange        .... B88
   X-Alpha parameter    XAlpha          ....  0.666667
   Becke's b parameter  XBeta           ....  0.004200
 Correlation Functional Correlation     .... LYP
 LDA part of GGA corr.  LDAOpt          .... VWN-5
 Gradients option       PostSCFGGA      .... off
 Hybrid DFT is turned on
   Fraction HF Exchange ScalHFX         ....  0.200000
   Scaling of DF-GGA-X  ScalDFX         ....  0.720000
   Scaling of DF-GGA-C  ScalDFC         ....  0.810000
   Scaling of DF-LDA-C  ScalLDAC        ....  1.000000
   Perturbative correction              ....  0.000000
   NL short-range parameter             ....  4.800000


General Settings:
 Integral files         IntName         .... hydroxyl_098
 Hartree-Fock type      HFTyp           .... UHF
 Total Charge           Charge          ....    0
 Multiplicity           Mult            ....    2
 Number of Electrons    NEL             ....    9
 Basis Dimension        Dim             ....   11
 Nuclear Repulsion      ENuc            ....      4.3198139453 Eh

Convergence Acceleration:
 DIIS                   CNVDIIS         .... on
   Start iteration      DIISMaxIt       ....    12
   Startup error        DIISStart       ....  0.200000
   # of expansion vecs  DIISMaxEq       ....     5
   Bias factor          DIISBfac        ....   1.050
   Max. coefficient     DIISMaxC        ....  10.000
 Newton-Raphson         CNVNR           .... off
 SOSCF                  CNVSOSCF        .... off
 Level Shifting         CNVShift        .... on
   Level shift para.    LevelShift      ....    0.2500
   Turn off err/grad.   ShiftErr        ....    0.0010
 Zerner damping         CNVZerner       .... off
 Static damping         CNVDamp         .... on
   Fraction old density DampFac         ....    0.7000
   Max. Damping (<1)    DampMax         ....    0.9800
   Min. Damping (>=0)   DampMin         ....    0.0000
   Turn off err/grad.   DampErr         ....    0.1000
 Fernandez-Rico         CNVRico         .... off

SCF Procedure:
 Maximum # iterations   MaxIter         ....   125
 SCF integral mode      SCFMode         .... Direct
   Integral package                     .... LIBINT
 Reset frequeny         DirectResetFreq ....    20
 Integral Threshold     Thresh          .... 1.000e-010 Eh
 Primitive CutOff       TCut            .... 1.000e-011 Eh

Convergence Tolerance:
 Convergence Check Mode ConvCheckMode   .... Total+1el-Energy
 Energy Change          TolE            .... 1.000e-006 Eh
 1-El. energy change                    .... 1.000e-003 Eh
 DIIS Error             TolErr          .... 1.000e-006


Diagonalization of the overlap matrix:
Smallest eigenvalue                        ... 8.668e-002
Time for diagonalization                   ...    0.015 sec
Threshold for overlap eigenvalues          ... 1.000e-008
Number of eigenvalues below threshold      ... 0
Time for construction of square roots      ...    0.032 sec
Total time needed                          ...    0.047 sec

-------------------
DFT GRID GENERATION
-------------------

General Integration Accuracy     IntAcc      ...  4.340
Radial Grid Type                 RadialGrid  ... Gauss-Chebyshev
Angular Grid (max. acc.)         AngularGrid ... Lebedev-110
Angular grid pruning method      GridPruning ... 3 (G Style)
Weight generation scheme         WeightScheme... Becke
Basis function cutoff            BFCut       ...   1.0000e-010
Integration weight cutoff        WCut        ...   1.0000e-014
Grids for H and He will be reduced by one unit

# of grid points (after initial pruning)     ...   2510 (   0.0 sec)
# of grid points (after weights+screening)   ...   2485 (   0.0 sec)
nearest neighbour list constructed           ...    0.0 sec
Grid point re-assignment to atoms done       ...    0.0 sec
Grid point division into batches done        ...    0.0 sec
Reduced shell lists constructed in    0.0 sec

Total number of grid points                  ...     2485
Total number of batches                      ...       40
Average number of points per batch           ...       62
Average number of grid points per atom       ...     1243
Average number of shells per batch           ...     6.44 (91.99%)
Average number of basis functions per batch  ...    10.24 (93.13%)
Average number of large shells per batch     ...     6.05 (93.94%)
Average number of large basis fcns per batch ...     9.76 (95.24%)
Maximum spatial batch extension              ...  20.95, 25.65, 15.63 au
Average spatial batch extension              ...   7.13,  7.12,  5.44 au

Time for grid setup =    0.046 sec

------------------------------
INITIAL GUESS: MODEL POTENTIAL
------------------------------
Loading Hartree-Fock densities                     ... done
Calculating cut-offs                               ... done
Setting up the integral package                    ... done
Initializing the effective Hamiltonian             ... done
Starting the Coulomb interaction                   ... done (   0.0 sec)
Reading the grid                                   ... done
Mapping shells                                     ... done
Starting the XC term evaluation                    ... done (   0.0 sec)
  promolecular density results
     # of electrons  =      8.998098670
     EX              =     -8.416527829
     EC              =     -0.304203647
     EX+EC           =     -8.720731476
Transforming the Hamiltonian                       ... done (   0.0 sec)
Diagonalizing the Hamiltonian                      ... done (   0.0 sec)
Back transforming the eigenvectors                 ... done (   0.0 sec)
Now organizing SCF variables                       ... done
                      ------------------
                      INITIAL GUESS DONE (   0.4 sec)
                      ------------------
--------------
SCF ITERATIONS
--------------
ITER       Energy         Delta-E        Max-DP      RMS-DP      [F,P]     Damp
               ***  Starting incremental Fock matrix formation  ***
  0    -75.6510811826   0.000000000000 0.02789442  0.00501081  0.1783858 0.7000
  1    -75.6616157498  -0.010534567227 0.01937069  0.00337439  0.0942516 0.7000
                               ***Turning on DIIS***
  2    -75.6660339391  -0.004418189235 0.03348572  0.00559931  0.0393605 0.0000
  3    -75.6730828445  -0.007048905412 0.01133087  0.00220810  0.0431942 0.0000
  4    -75.6745380920  -0.001455247568 0.00255857  0.00045538  0.0061062 0.0000
  5    -75.6745824761  -0.000044384016 0.00143729  0.00024742  0.0008426 0.0000
  6    -75.6745898372  -0.000007361172 0.00049342  0.00007466  0.0001644 0.0000
                 **** Energy Check signals convergence ****

               *****************************************************
               *                     SUCCESS                       *
               *           SCF CONVERGED AFTER   7 CYCLES          *
               *****************************************************

Setting up the final grid:

General Integration Accuracy     IntAcc      ...  4.670
Radial Grid Type                 RadialGrid  ... Gauss-Chebyshev
Angular Grid (max. acc.)         AngularGrid ... Lebedev-302
Angular grid pruning method      GridPruning ... 3 (G Style)
Weight generation scheme         WeightScheme... Becke
Basis function cutoff            BFCut       ...   1.0000e-010
Integration weight cutoff        WCut        ...   1.0000e-014
Grids for H and He will be reduced by one unit

# of grid points (after initial pruning)     ...   9606 (   0.0 sec)
# of grid points (after weights+screening)   ...   9577 (   0.0 sec)
nearest neighbour list constructed           ...    0.0 sec
Grid point re-assignment to atoms done       ...    0.0 sec
Grid point division into batches done        ...    0.1 sec
Reduced shell lists constructed in    0.2 sec

Total number of grid points                  ...     9577
Total number of batches                      ...      151
Average number of points per batch           ...       63
Average number of grid points per atom       ...     4789
Average number of shells per batch           ...     5.73 (81.86%)
Average number of basis functions per batch  ...     9.15 (83.19%)
Average number of large shells per batch     ...     5.34 (93.11%)
Average number of large basis fcns per batch ...     8.59 (93.82%)
Maximum spatial batch extension              ...  21.92, 19.94, 15.73 au
Average spatial batch extension              ...   4.04,  4.00,  3.22 au

Final grid set up in    0.2 sec
Final integration                            ... done (   0.1 sec)
Change in XC energy                          ...    -0.000369089
Integrated number of electrons               ...     9.000000174
Previous integrated no of electrons          ...     8.996659558

----------------
TOTAL SCF ENERGY
----------------

Total Energy       :          -75.67495969 Eh           -2059.22034 eV

Components:
Nuclear Repulsion  :            4.31981395 Eh             117.54811 eV
Electronic Energy  :          -79.99477363 Eh           -2176.76846 eV

One Electron Energy:         -112.59383773 Eh           -3063.83409 eV
Two Electron Energy:           32.59906410 Eh             887.06563 eV

Virial components:
Potential Energy   :         -151.01704105 Eh           -4109.38260 eV
Kinetic Energy     :           75.34208136 Eh            2050.16226 eV
Virial Ratio       :            2.00441823


DFT components:
N(Alpha)           :        5.000000427686 electrons
N(Beta)            :        3.999999745943 electrons
N(Total)           :        9.000000173629 electrons
E(X)               :       -6.803000777443 Eh       
E(C)               :       -0.357789560520 Eh       
E(XC)              :       -7.160790337963 Eh       

---------------
SCF CONVERGENCE
---------------

  Last Energy change         ...  -7.6021e-007  Tolerance :  1.0000e-006
  Last MAX-Density change    ...   1.5896e-004  Tolerance :  1.0000e-005
  Last RMS-Density change    ...   2.5873e-005  Tolerance :  1.0000e-006
  Last DIIS Error            ...   1.7624e-005  Tolerance :  1.0000e-006

             **** THE GBW FILE WAS UPDATED (hydroxyl_098.gbw) ****
             **** DENSITY FILE WAS UPDATED (hydroxyl_098.scfp.tmp) ****
             **** ENERGY FILE WAS UPDATED (hydroxyl_098.en.tmp) ****
----------------------
UHF SPIN CONTAMINATION
----------------------

Warning: in a DFT calculation there is little theoretical justification to 
         calculate <S**2> as in Hartree-Fock theory. We will do it anyways
         but you should keep in mind that the values have only limited relevance

Expectation value of <S**2>     :     0.751295
Ideal value S*(S+1) for S=0.5   :     0.750000
Deviation                       :     0.001295

----------------
ORBITAL ENERGIES
----------------
                 SPIN UP ORBITALS
  NO   OCC          E(Eh)            E(eV) 
   0   1.0000     -19.205426      -522.6062 
   1   1.0000      -1.014503       -27.6060 
   2   1.0000      -0.458674       -12.4812 
   3   1.0000      -0.399960       -10.8835 
   4   1.0000      -0.325994        -8.8707 
   5   0.0000       0.065510         1.7826 
   6   0.0000       0.800822        21.7915 
   7   0.0000       0.820014        22.3137 
   8   0.0000       0.868841        23.6424 
   9   0.0000       0.937871        25.5208 
  10   0.0000       1.241129        33.7728 

                 SPIN DOWN ORBITALS
  NO   OCC          E(Eh)            E(eV) 
   0   1.0000     -19.180450      -521.9266 
   1   1.0000      -0.945174       -25.7195 
   2   1.0000      -0.429740       -11.6938 
   3   1.0000      -0.297262        -8.0889 
   4   0.0000      -0.152147        -4.1401 
   5   0.0000       0.074745         2.0339 
   6   0.0000       0.805908        21.9299 
   7   0.0000       0.885516        24.0961 
   8   0.0000       0.918610        24.9967 
   9   0.0000       0.956767        26.0350 
  10   0.0000       1.276825        34.7442 

                    ********************************
                    * MULLIKEN POPULATION ANALYSIS *
                    ********************************

--------------------------------------------
MULLIKEN ATOMIC CHARGES AND SPIN POPULATIONS
--------------------------------------------
   0 O :   -0.359510    1.035568
   1 H :    0.359510   -0.035568
Sum of atomic charges         :    0.0000000
Sum of atomic spin populations:    1.0000000

-----------------------------------------------------
MULLIKEN REDUCED ORBITAL CHARGES AND SPIN POPULATIONS
-----------------------------------------------------
CHARGE
  0 O s       :     3.976182  s :     3.976182
      pz      :     1.383328  p :     4.383328
      px      :     1.000032
      py      :     1.999968
  1 H s       :     0.640490  s :     0.640490

SPIN
  0 O s       :     0.010062  s :     0.010062
      pz      :     0.025506  p :     1.025506
      px      :     0.999968
      py      :     0.000032
  1 H s       :    -0.035568  s :    -0.035568


                     *******************************
                     * LOEWDIN POPULATION ANALYSIS *
                     *******************************

-------------------------------------------
LOEWDIN ATOMIC CHARGES AND SPIN POPULATIONS
-------------------------------------------
   0 O :   -0.268716    1.026364
   1 H :    0.268716   -0.026364

----------------------------------------------------
LOEWDIN REDUCED ORBITAL CHARGES AND SPIN POPULATIONS
----------------------------------------------------
CHARGE
  0 O s       :     3.831902  s :     3.831902
      pz      :     1.436814  p :     4.436814
      px      :     1.000032
      py      :     1.999968
  1 H s       :     0.731284  s :     0.731284

SPIN
  0 O s       :     0.007346  s :     0.007346
      pz      :     0.019018  p :     1.019018
      px      :     0.999968
      py      :     0.000032
  1 H s       :    -0.026364  s :    -0.026364


                      *****************************
                      * MAYER POPULATION ANALYSIS *
                      *****************************

  NA   - Mulliken gross atomic population
  ZA   - Total nuclear charge
  QA   - Mulliken gross atomic charge
  VA   - Mayer's total valence
  BVA  - Mayer's bonded valence
  FA   - Mayer's free valence

  ATOM       NA         ZA         QA         VA         BVA        FA
  0 O      8.3595     8.0000    -0.3595     1.8208     0.8187     1.0021
  1 H      0.6405     1.0000     0.3595     0.8201     0.8187     0.0014

  Mayer bond orders larger than 0.1
B(  0-O ,  1-H ) :   0.8187 

-------
TIMINGS
-------

Total SCF time: 0 days 0 hours 0 min 3 sec 

Total time                  ....       3.484 sec
Sum of individual times     ....       3.655 sec  (104.9%)

Fock matrix formation       ....       2.953 sec  ( 84.8%)
  Coulomb formation         ....       2.235 sec  ( 75.7% of F)
  XC integration            ....       0.563 sec  ( 19.1% of F)
    Basis function eval.    ....       0.031 sec  (  5.5% of XC)
    Density eval.           ....       0.078 sec  ( 13.9% of XC)
    XC-Functional eval.     ....       0.061 sec  ( 10.8% of XC)
Diagonalization             ....       0.000 sec  (  0.0%)
Density matrix formation    ....       0.000 sec  (  0.0%)
Population analysis         ....       0.047 sec  (  1.3%)
Initial guess               ....       0.390 sec  ( 11.2%)
Orbital Transformation      ....       0.000 sec  (  0.0%)
Orbital Orthonormalization  ....       0.000 sec  (  0.0%)
DIIS solution               ....       0.032 sec  (  0.9%)
Grid generation             ....       0.233 sec  (  6.7%)

-------------------------   --------------------
FINAL SINGLE POINT ENERGY       -75.674959686662
-------------------------   --------------------

   --->>> g-tensor requested, so NeedSOC=true

                            ***************************************
                            *     ORCA property calculations      *
                            ***************************************

                                    ---------------------
                                    Active property flags
                                    ---------------------
   (+) Dipole Moment
   (+) g-tensor
   (+) Nuclear properties (Hyperfine,Quadrupole,Chemical Shift)
   (+) Spin-Orbit Integrals are needed


------------------------------------------------------------------------------
                       ORCA ELECTRIC PROPERTIES CALCULATION
------------------------------------------------------------------------------

Dipole Moment Calculation                       ... on
Quadrupole Moment Calculation                   ... off
Polarizability Calculation                      ... off
GBWName                                         ... hydroxyl_098.gbw
Electron density file                           ... hydroxyl_098.scfp.tmp

-------------
DIPOLE MOMENT
-------------
                                X             Y             Z
Electronic contribution:      0.00000      -0.00000      -0.08618
Nuclear contribution   :      0.00000       0.00000       0.86406
                        -----------------------------------------
Total Dipole Moment    :      0.00000      -0.00000       0.77788
                        -----------------------------------------
Magnitude (a.u.)       :      0.77788
Magnitude (Debye)      :      1.97722

------------------------------------------------------------------------------
                         ORCA SPIN-ORBIT COUPLING CALCULATION
------------------------------------------------------------------------------

GBW file                                    ... hydroxyl_098.gbw
Input density                               ... hydroxyl_098.scfp.tmp
Output integrals                            ... hydroxyl_098
Operator type                               ... Mean-field/Effective potential
   One-Electron Terms                       ... 1
   Coulomb Contribution                     ... 2
   Exchange Contribution                    ... 3
   Correlation Contribution                 ... 0
   Maximum number of centers                ... 4
Setting up the integration grid             ... done
Evaluating density on the grid              ... (NumEl=    8.996660) done
Evaluating Coulomb term semi-analytically   ... done
One-Center Exchange (+SOO)                  ... done
Evaluating the spin-orbit operator          ... done
Total time for SOC:  0.610
------------------------------------------------------------------------------
                                ORCA EPR/NMR CALCULATION
------------------------------------------------------------------------------

GBWName                      ... hydroxyl_098.gbw
Electron density file        ... hydroxyl_098.scfp.tmp
Spin density file            ... hydroxyl_098.scfr.tmp
Spin-orbit integrals         ... hydroxyl_098
Origin for angular momentum  ... Center of electronic charge
Coordinates of the origin    ...   -0.00000000    0.00000000    0.11933865 (bohrs)
Details of the CP(SCF) procedure:
       Solver   = POPLE   
       MaxIter  =    64   
       Tolerance=   1.000e-006
       Op-0     =   0-  4 =>   5- 10
       Op-1     =   0-  3 =>   4- 10
Multiplicity                 ... 2
g-tensor                     ... 1
Number of nuclei for epr/nmr ... 1
   Nucleus:   1H 
       Hyperfine : Isotope=    1 I=   0.500 P= 533.551
       Quadrupole: Isotope=    2 I=   1.000 Q=   0.003
       Spin-Orbit: Zeff=   1.000
       rho(0)=Y f(grad)=Y a(iso)=Y a(dip)=Y a(orb)=Y sigma(nmr)=N
Using LibInt in CPSCF-CP

Calculating angular momentum integrals      ... done
Forming RHS of the CP-SCF equations         ... done

     CP-SCF ITERATION   0: 
     CP-SCF ITERATION   1:      0.000093089
     CP-SCF ITERATION   2:      0.000000085

Forming final perturbed densities           ... done

Magnetic field perturbation calculated in  1.140 sec
 Tensor is right-handed.


-------------------
ELECTRONIC G-MATRIX
-------------------

 The g-matrix: 
              2.0021649    0.0000260    0.0000000
              0.0000263    2.0068300    0.0000000
              0.0000000    0.0000000    2.0784868

 gel          2.0023193    2.0023193    2.0023193
 gRMC        -0.0002910   -0.0002910   -0.0002910
 gDSO(tot)    0.0000716    0.0001387    0.0001405
 gPSO(tot)    0.0000648    0.0046632    0.0763180
             ----------   ----------   ----------
 g(tot)       2.0021647    2.0068302    2.0784868 iso=  2.0291606
 Delta-g     -0.0001546    0.0045109    0.0761675 iso=  0.0268413
 Orientation: 
  X          -0.9999842   -0.0056136    0.0000000
  Y           0.0056136   -0.9999842    0.0000000
  Z           0.0000000    0.0000000    1.0000000

Notes:  (1) The principal values are square roots of the eigenvalues of gT*g
        (2) Orientations are eigenvectors of gT*g
        (3) Individual contributions are projections of the full matrices onto the eigenvectors of gT*g


-----------------------------------------
ELECTRIC AND MAGNETIC HYPERFINE STRUCTURE
-----------------------------------------

 -----------------------------------------------------------
 Nucleus   1H : A:ISTP=    1 I=  0.5 P=533.5514 MHz/au**3
                Q:ISTP=    2 I=  1.0 Q=  0.0029 barn     
 -----------------------------------------------------------
 Solving for nuclear perturbation:
Using LibInt in CPSCF-CP

Calculating nucleus orbit integrals         ... done
Forming RHS of the CP-SCF equations         ... done

     CP-SCF ITERATION   0: 
     CP-SCF ITERATION   1:      0.000017086
     CP-SCF ITERATION   2:      0.000000490

Forming final perturbed densities           ... done

Using FinalGrid as integration grid:         ... finished setting up the grid
Time for grid setup =    0.000 sec

 Tensor is right-handed.

 Raw HFC matrix (all values in MHz): 
 ------------------------------
              -101.3847              -0.2165              -0.0000
                -0.2165            -139.7384              -0.0000
                 0.0000              -0.0000              23.0706

 A(FC)         -74.6827             -74.6827             -74.6827
 A(SD)          91.9123             -26.6923             -65.2200
 A(ORB+DIA)      5.8411              -0.0085               0.1632    A(PC) =   1.9986
 A(ORB)          5.8553              -0.0118               0.1666    A(PC) =   2.0033
 A(DIA)         -0.0142               0.0033              -0.0034    A(PC) =  -0.0048
             ----------           ----------           ----------
 A(Tot)         23.0706            -101.3835            -139.7396    A(iso)=  -72.6841
 Orientation: 
  X          -0.0000000           -0.9999841           -0.0056456
  Y          -0.0000000            0.0056456           -0.9999841
  Z           1.0000000           -0.0000000           -0.0000000

 Tensor is right-handed.

 Raw EFG matrix (all values in a.u.**-3):
            -0.1918      -0.0004       0.0000
            -0.0004      -0.2669      -0.0000
             0.0000      -0.0000       0.4587

 V(El)       1.0678       0.9926      -2.0604
 V(Nuc)     -1.2595      -1.2595       2.5191
         ----------   ----------   ----------
 V(Tot)     -0.1918      -0.2669       0.4587 
 Orientation: 
  X       0.9999841    0.0056457    0.0000000
  Y      -0.0056457    0.9999841   -0.0000000
  Z      -0.0000000    0.0000000    1.0000000


 Quadrupole tensor eigenvalues (in MHz;Q= 0.0029 I=  1.0)
  e**2qQ            =     0.310 MHz 
  e**2qQ/(4I*(2I-1))=     0.078 MHz 
  eta               =     0.164
  NOTE: the diagonal representation of the SH term I*Q*I = e**2qQ/(4I(2I-1))*[-(1-eta),-(1+eta),2]

 RHO(0)=      0.423014810 a.u.**-3

----------------------------------------------------------------------------
                           ORCA EULER ANGLE PROGRAM
----------------------------------------------------------------------------

Only g-tensor available        -->  using g-tensor as reference tensor

Reference tensor               ...  g

g-tensor ordering              ...  |g_min> --> |gx>
                                    |g_mid> --> |gy>
                                    |g_max> --> |gz>

A- and EFG-tensor ordering     ...  the axes |Ax>, |Qx>, |Ay>, etc. are assigned
                                    such that the Euler rotation is minimal. You
                                    can find the respective eigenvalues as Ax,
                                    EFGx, Ay, etc. in the tables below.
                                    The relation of |Ax>, |Ay>,  etc. to Amin, Amid, etc.
                                    (as printed in the ORCA EPR/NMR CALCULATION Output)
                                    is obtained in the detailed printout.

Euler rotation around          ...  z - y - z
   First rotation              -->  by alpha around z
   Second rotation             -->  by beta around y'
   Third rotation              -->  by gamma around z''
   Positive / Negative angle   -->  clockwise / counterclockwise rotation

Plot EFG-tensors                    (-)
Plot HFC-tensors                    (-)
Detailed Printout                   (-)

-------------------------------------------------------------------------
          Euler rotation of hyperfine tensor to g-tensor
-------------------------------------------------------------------------

-------------------------------------------------------------------
 Atom  |   Alpha    Beta    Gamma   |   Ax       Ay       Az 
       |          [degrees]         |           [MHz]         
-------------------------------------------------------------------
  1H        0.0      0.0      0.0    -101.38  -139.74    23.07
-------------------------------------------------------------------


-------------------------------------------------------------------------------
    Euler rotation of Electric Field Gradient (EFG) tensor to g-tensor
-------------------------------------------------------------------------------

-------------------------------------------------------------------
 Atom  |   Alpha    Beta    Gamma  |   EFGx     EFGy     EFGz
       |          [degrees]        |         [a.u.**-3]       
-------------------------------------------------------------------
  1H        0.0      0.0      0.0     -0.19    -0.27     0.46
-------------------------------------------------------------------


Timings for individual modules:

Sum of individual times         ...        8.188 sec (=   0.136 min)
GTO integral calculation        ...        0.734 sec (=   0.012 min)   9.0 %
Spin-Orbit-Coupling Matrices    ...        0.610 sec (=   0.010 min)   7.4 %
SCF iterations                  ...        4.172 sec (=   0.070 min)  51.0 %
SCF-level EPR/NMR calculation   ...        2.672 sec (=   0.045 min)  32.6 %
                             ****ORCA TERMINATED NORMALLY****
TOTAL RUN TIME: 0 days 0 hours 0 minutes 8 seconds 593 msec
