
                                 *****************
                                 * O   R   C   A *
                                 *****************

                                            #,                                       
                                            ###                                      
                                            ####                                     
                                            #####                                    
                                            ######                                   
                                           ########,                                 
                                     ,,################,,,,,                         
                               ,,#################################,,                 
                          ,,##########################################,,             
                       ,#########################################, ''#####,          
                    ,#############################################,,   '####,        
                  ,##################################################,,,,####,       
                ,###########''''           ''''###############################       
              ,#####''   ,,,,##########,,,,          '''####'''          '####       
            ,##' ,,,,###########################,,,                        '##       
           ' ,,###''''                  '''############,,,                           
         ,,##''                                '''############,,,,        ,,,,,,###''
      ,#''                                            '''#######################'''  
     '                                                          ''''####''''         
             ,#######,   #######,   ,#######,      ##                                
            ,#'     '#,  ##    ##  ,#'     '#,    #''#        ######   ,####,        
            ##       ##  ##   ,#'  ##            #'  '#       #        #'  '#        
            ##       ##  #######   ##           ,######,      #####,   #    #        
            '#,     ,#'  ##    ##  '#,     ,#' ,#      #,         ##   #,  ,#        
             '#######'   ##     ##  '#######'  #'      '#     #####' # '####'        



                  #######################################################
                  #                        -***-                        #
                  #          Department of theory and spectroscopy      #
                  #    Directorship and core code : Frank Neese         #
                  #        Max Planck Institute fuer Kohlenforschung    #
                  #                Kaiser Wilhelm Platz 1               #
                  #                 D-45470 Muelheim/Ruhr               #
                  #                      Germany                        #
                  #                                                     #
                  #                  All rights reserved                #
                  #                        -***-                        #
                  #######################################################


                         Program Version 5.0.4 -  RELEASE  -


 With contributions from (in alphabetic order):
   Daniel Aravena         : Magnetic Suceptibility
   Michael Atanasov       : Ab Initio Ligand Field Theory (pilot matlab implementation)
   Alexander A. Auer      : GIAO ZORA, VPT2 properties, NMR spectrum
   Ute Becker             : Parallelization
   Giovanni Bistoni       : ED, misc. LED, open-shell LED, HFLD
   Martin Brehm           : Molecular dynamics
   Dmytro Bykov           : SCF Hessian
   Vijay G. Chilkuri      : MRCI spin determinant printing, contributions to CSF-ICE
   Dipayan Datta          : RHF DLPNO-CCSD density
   Achintya Kumar Dutta   : EOM-CC, STEOM-CC
   Dmitry Ganyushin       : Spin-Orbit,Spin-Spin,Magnetic field MRCI
   Miquel Garcia          : C-PCM and meta-GGA Hessian, CC/C-PCM, Gaussian charge scheme
   Yang Guo               : DLPNO-NEVPT2, F12-NEVPT2, CIM, IAO-localization
   Andreas Hansen         : Spin unrestricted coupled pair/coupled cluster methods
   Benjamin Helmich-Paris : MC-RPA, TRAH-SCF, COSX integrals
   Lee Huntington         : MR-EOM, pCC
   Robert Izsak           : Overlap fitted RIJCOSX, COSX-SCS-MP3, EOM
   Marcus Kettner         : VPT2
   Christian Kollmar      : KDIIS, OOCD, Brueckner-CCSD(T), CCSD density, CASPT2, CASPT2-K
   Simone Kossmann        : Meta GGA functionals, TD-DFT gradient, OOMP2, MP2 Hessian
   Martin Krupicka        : Initial AUTO-CI
   Lucas Lang             : DCDCAS
   Marvin Lechner         : AUTO-CI (C++ implementation), FIC-MRCC
   Dagmar Lenk            : GEPOL surface, SMD
   Dimitrios Liakos       : Extrapolation schemes; Compound Job, initial MDCI parallelization
   Dimitrios Manganas     : Further ROCIS development; embedding schemes
   Dimitrios Pantazis     : SARC Basis sets
   Anastasios Papadopoulos: AUTO-CI, single reference methods and gradients
   Taras Petrenko         : DFT Hessian,TD-DFT gradient, ASA, ECA, R-Raman, ABS, FL, XAS/XES, NRVS
   Peter Pinski           : DLPNO-MP2, DLPNO-MP2 Gradient
   Christoph Reimann      : Effective Core Potentials
   Marius Retegan         : Local ZFS, SOC
   Christoph Riplinger    : Optimizer, TS searches, QM/MM, DLPNO-CCSD(T), (RO)-DLPNO pert. Triples
   Tobias Risthaus        : Range-separated hybrids, TD-DFT gradient, RPA, STAB
   Michael Roemelt        : Original ROCIS implementation
   Masaaki Saitow         : Open-shell DLPNO-CCSD energy and density
   Barbara Sandhoefer     : DKH picture change effects
   Avijit Sen             : IP-ROCIS
   Kantharuban Sivalingam : CASSCF convergence, NEVPT2, FIC-MRCI
   Bernardo de Souza      : ESD, SOC TD-DFT
   Georgi Stoychev        : AutoAux, RI-MP2 NMR, DLPNO-MP2 response
   Willem Van den Heuvel  : Paramagnetic NMR
   Boris Wezisla          : Elementary symmetry handling
   Frank Wennmohs         : Technical directorship


 We gratefully acknowledge several colleagues who have allowed us to
 interface, adapt or use parts of their codes:
   Stefan Grimme, W. Hujo, H. Kruse, P. Pracht,  : VdW corrections, initial TS optimization,
                  C. Bannwarth, S. Ehlert          DFT functionals, gCP, sTDA/sTD-DF
   Ed Valeev, F. Pavosevic, A. Kumar             : LibInt (2-el integral package), F12 methods
   Garnet Chan, S. Sharma, J. Yang, R. Olivares  : DMRG
   Ulf Ekstrom                                   : XCFun DFT Library
   Mihaly Kallay                                 : mrcc  (arbitrary order and MRCC methods)
   Jiri Pittner, Ondrej Demel                    : Mk-CCSD
   Frank Weinhold                                : gennbo (NPA and NBO analysis)
   Christopher J. Cramer and Donald G. Truhlar   : smd solvation model
   Lars Goerigk                                  : TD-DFT with DH, B97 family of functionals
   V. Asgeirsson, H. Jonsson                     : NEB implementation
   FAccTs GmbH                                   : IRC, NEB, NEB-TS, DLPNO-Multilevel, CI-OPT
                                                   MM, QMMM, 2- and 3-layer-ONIOM, Crystal-QMMM,
                                                   LR-CPCM, SF, NACMEs, symmetry and pop. for TD-DFT,
                                                   nearIR, NL-DFT gradient (VV10), updates on ESD,
                                                   ML-optimized integration grids
   S Lehtola, MJT Oliveira, MAL Marques          : LibXC Library
   Liviu Ungur et al                             : ANISO software


 Your calculation uses the libint2 library for the computation of 2-el integrals
 For citations please refer to: http://libint.valeyev.net

 Your ORCA version has been built with support for libXC version: 5.1.0
 For citations please refer to: https://tddft.org/programs/libxc/

 This ORCA versions uses:
   CBLAS   interface :  Fast vector & matrix operations
   LAPACKE interface :  Fast linear algebra routines
   SCALAPACK package :  Parallel linear algebra routines
   Shared memory     :  Shared parallel matrices
   BLAS/LAPACK       :  OpenBLAS 0.3.15  USE64BITINT DYNAMIC_ARCH NO_AFFINITY SkylakeX SINGLE_THREADED
        Core in use  :  SkylakeX
   Copyright (c) 2011-2014, The OpenBLAS Project


Your calculation utilizes the atom-pairwise dispersion correction
with the Becke-Johnson damping scheme (D3BJ)
Cite in your paper:
S.Grimme, S.Ehrlich, L.Goerigk, J Comput Chem, (2011), 32, 1456–1465 
S.Grimme, J.Antony, S.Ehrlich and H.Krieg, J.Chem.Phys., 132, (2010), 154104 
   

================================================================================

----- Orbital basis set information -----
Your calculation utilizes the basis: EPR-III
   V. Barone, in Recent Advances in Density Functional Methods, Part 1 (ed. D. P. Chong), World Scientific, Singapore, 1995, p. 287.
   N. Rega, M. Cossi and V. Barone, J. Chem. Phys. 105, 11060 (1996).

----- AuxJ basis set information -----
Your calculation utilizes the auxiliary basis: def2/J
   F. Weigend, Phys. Chem. Chem. Phys. 8, 1057 (2006).

================================================================================
                                        WARNINGS
                       Please study these warnings very carefully!
================================================================================


INFO   : the flag for use of the SHARK integral package has been found!

================================================================================
                                       INPUT FILE
================================================================================
NAME = quinoline_triplet_tilted.inp
|  1> ! UKS PBE0 EPR-III D3BJ TightSCF
|  2> *xyz 0 3
|  3> N       -0.27945       -1.16999        1.69456
|  4> C       -0.04592       -2.46991        2.09905
|  5> C       -0.45385       -3.57268        1.39248
|  6> C       -1.16311       -3.38808        0.16401
|  7> C       -1.42138       -2.07958       -0.28332
|  8> C       -2.11272       -1.77365       -1.48075
|  9> C       -2.35002       -0.40763       -1.89178
| 10> C       -1.90337        0.62531       -1.11815
| 11> C       -1.19668        0.34648        0.10587
| 12> C       -0.94752       -0.98847        0.53742
| 13> H        0.49761       -2.57087        3.04047
| 14> H       -0.24055       -4.57595        1.76193
| 15> H       -1.50083       -4.24444       -0.42094
| 16> H       -2.47400       -2.59195       -2.10652
| 17> H       -2.88695       -0.21994       -2.82177
| 18> H       -2.07339        1.66085       -1.41263
| 19> H       -0.83052        1.15377        0.74008
| 20> *
| 21> 
| 22> %eprnmr gTensor 1
| 23>         Dtensor ss
| 24>         DSS uno
| 25>         Nuclei = all N {aiso, adip, aorb, fgrad, rho}
| 26> end
| 27> 
| 28>                          ****END OF INPUT****
================================================================================

                       ****************************
                       * Single Point Calculation *
                       ****************************

---------------------------------
CARTESIAN COORDINATES (ANGSTROEM)
---------------------------------
  N     -0.279450   -1.169990    1.694560
  C     -0.045920   -2.469910    2.099050
  C     -0.453850   -3.572680    1.392480
  C     -1.163110   -3.388080    0.164010
  C     -1.421380   -2.079580   -0.283320
  C     -2.112720   -1.773650   -1.480750
  C     -2.350020   -0.407630   -1.891780
  C     -1.903370    0.625310   -1.118150
  C     -1.196680    0.346480    0.105870
  C     -0.947520   -0.988470    0.537420
  H      0.497610   -2.570870    3.040470
  H     -0.240550   -4.575950    1.761930
  H     -1.500830   -4.244440   -0.420940
  H     -2.474000   -2.591950   -2.106520
  H     -2.886950   -0.219940   -2.821770
  H     -2.073390    1.660850   -1.412630
  H     -0.830520    1.153770    0.740080

----------------------------
CARTESIAN COORDINATES (A.U.)
----------------------------
  NO LB      ZA    FRAG     MASS         X           Y           Z
   0 N     7.0000    0    14.007   -0.528084   -2.210961    3.202254
   1 C     6.0000    0    12.011   -0.086776   -4.667453    3.966630
   2 C     6.0000    0    12.011   -0.857652   -6.751387    2.631406
   3 C     6.0000    0    12.011   -2.197959   -6.402543    0.309934
   4 C     6.0000    0    12.011   -2.686019   -3.929837   -0.535397
   5 C     6.0000    0    12.011   -3.992462   -3.351713   -2.798212
   6 C     6.0000    0    12.011   -4.440894   -0.770309   -3.574946
   7 C     6.0000    0    12.011   -3.596848    1.181665   -2.112997
   8 C     6.0000    0    12.011   -2.261397    0.654752    0.200065
   9 C     6.0000    0    12.011   -1.790553   -1.867938    1.015577
  10 H     1.0000    0     1.008    0.940347   -4.858240    5.745656
  11 H     1.0000    0     1.008   -0.454574   -8.647292    3.329565
  12 H     1.0000    0     1.008   -2.836158   -8.020829   -0.795461
  13 H     1.0000    0     1.008   -4.675182   -4.898076   -3.980746
  14 H     1.0000    0     1.008   -5.455545   -0.415626   -5.332373
  15 H     1.0000    0     1.008   -3.918139    3.138552   -2.669484
  16 H     1.0000    0     1.008   -1.569455    2.180309    1.398549

--------------------------------
INTERNAL COORDINATES (ANGSTROEM)
--------------------------------
 N      0   0   0     0.000000000000     0.00000000     0.00000000
 C      1   0   0     1.381282167915     0.00000000     0.00000000
 C      2   1   0     1.371768829905   123.74105432     0.00000000
 C      3   2   1     1.430477349873   119.08091704     0.00000000
 C      4   3   2     1.406762158931   118.95634457     0.00000000
 C      5   4   3     1.416115378562   124.01800638   180.00003011
 C      6   5   4     1.446121568645   121.63559843   180.00049272
 C      7   6   5     1.365637083196   119.98669764     0.00000000
 C      8   7   6     1.440618577348   119.69397824     0.00000000
 C      1   2   3     1.348421304674   117.49990999     0.00000000
 H      2   1   3     1.091736872557   115.06954919   179.99949151
 H      3   2   1     1.090202222251   120.46869869   179.99998034
 H      4   3   2     1.090675822827   120.84952599   180.00028814
 H      6   5   4     1.091662136973   118.96881206     0.00000000
 H      7   6   5     1.090138872392   119.07341665   179.99984144
 H      8   7   6     1.089939614107   120.96758729   180.00042395
 H      9   8   7     1.089959913850   121.05234836   179.99984216

---------------------------
INTERNAL COORDINATES (A.U.)
---------------------------
 N      0   0   0     0.000000000000     0.00000000     0.00000000
 C      1   0   0     2.610245011028     0.00000000     0.00000000
 C      2   1   0     2.592267407571   123.74105432     0.00000000
 C      3   2   1     2.703210432038   119.08091704     0.00000000
 C      4   3   2     2.658395215943   118.95634457     0.00000000
 C      5   4   3     2.676070239517   124.01800638   180.00003011
 C      6   5   4     2.732773721095   121.63559843   180.00049272
 C      7   6   5     2.580680085567   119.98669764     0.00000000
 C      8   7   6     2.722374574627   119.69397824     0.00000000
 C      1   2   3     2.548146978980   117.49990999     0.00000000
 H      2   1   3     2.063083699436   115.06954919   179.99949151
 H      3   2   1     2.060183630646   120.46869869   179.99998034
 H      4   3   2     2.061078606033   120.84952599   180.00028814
 H      6   5   4     2.062942469650   118.96881206     0.00000000
 H      7   6   5     2.060063916763   119.07341665   179.99984144
 H      8   7   6     2.059687373174   120.96758729   180.00042395
 H      9   8   7     2.059725734129   121.05234836   179.99984216

---------------------
BASIS SET INFORMATION
---------------------
There are 3 groups of distinct atoms

 Group   1 Type N   : 12s8p2d1f contracted to 8s5p2d1f pattern {51111111/41111/11/1}
 Group   2 Type C   : 12s8p2d1f contracted to 8s5p2d1f pattern {51111111/41111/11/1}
 Group   3 Type H   : 7s2p contracted to 5s2p pattern {31111/11}

Atom   0N    basis set group =>   1
Atom   1C    basis set group =>   2
Atom   2C    basis set group =>   2
Atom   3C    basis set group =>   2
Atom   4C    basis set group =>   2
Atom   5C    basis set group =>   2
Atom   6C    basis set group =>   2
Atom   7C    basis set group =>   2
Atom   8C    basis set group =>   2
Atom   9C    basis set group =>   2
Atom  10H    basis set group =>   3
Atom  11H    basis set group =>   3
Atom  12H    basis set group =>   3
Atom  13H    basis set group =>   3
Atom  14H    basis set group =>   3
Atom  15H    basis set group =>   3
Atom  16H    basis set group =>   3
---------------------------------
AUXILIARY/J BASIS SET INFORMATION
---------------------------------
There are 3 groups of distinct atoms

 Group   1 Type N   : 12s5p4d2f1g contracted to 6s4p3d1f1g pattern {711111/2111/211/2/1}
 Group   2 Type C   : 12s5p4d2f1g contracted to 6s4p3d1f1g pattern {711111/2111/211/2/1}
 Group   3 Type H   : 5s2p1d contracted to 3s1p1d pattern {311/2/1}

Atom   0N    basis set group =>   1
Atom   1C    basis set group =>   2
Atom   2C    basis set group =>   2
Atom   3C    basis set group =>   2
Atom   4C    basis set group =>   2
Atom   5C    basis set group =>   2
Atom   6C    basis set group =>   2
Atom   7C    basis set group =>   2
Atom   8C    basis set group =>   2
Atom   9C    basis set group =>   2
Atom  10H    basis set group =>   3
Atom  11H    basis set group =>   3
Atom  12H    basis set group =>   3
Atom  13H    basis set group =>   3
Atom  14H    basis set group =>   3
Atom  15H    basis set group =>   3
Atom  16H    basis set group =>   3
------------------------------------------------------------------------------
                           ORCA GTO INTEGRAL CALCULATION
                           -- RI-GTO INTEGRALS CHOSEN --
------------------------------------------------------------------------------
------------------------------------------------------------------------------
                   ___                                                        
                  /   \      - P O W E R E D   B Y -                         
                 /     \                                                     
                 |  |  |   _    _      __       _____    __    __             
                 |  |  |  | |  | |    /  \     |  _  \  |  |  /  |          
                  \  \/   | |  | |   /    \    | | | |  |  | /  /          
                 / \  \   | |__| |  /  /\  \   | |_| |  |  |/  /          
                |  |  |   |  __  | /  /__\  \  |    /   |      \           
                |  |  |   | |  | | |   __   |  |    \   |  |\   \          
                \     /   | |  | | |  |  |  |  | |\  \  |  | \   \       
                 \___/    |_|  |_| |__|  |__|  |_| \__\ |__|  \__/        
                                                                              
                      - O R C A' S   B I G   F R I E N D -                    
                                      &                                       
                       - I N T E G R A L  F E E D E R -                       
                                                                              
 v1 FN, 2020, v2 2021                                                         
------------------------------------------------------------------------------


Reading SHARK input file quinoline_triplet_tilted.SHARKINP.tmp ... ok
----------------------
SHARK INTEGRAL PACKAGE
----------------------

Number of atoms                             ...     17
Number of basis functions                   ...    477
Number of shells                            ...    209
Maximum angular momentum                    ...      3
Integral batch strategy                     ... SHARK/LIBINT Hybrid
RI-J (if used) integral strategy            ... SPLIT-RIJ (Revised 2003 algorithm where possible)
Printlevel                                  ...      1
Contraction scheme used                     ... SEGMENTED contraction
Coulomb Range Separation                    ... NOT USED
Exchange Range Separation                   ... NOT USED
Finite Nucleus Model                        ... NOT USED
Auxiliary Coulomb fitting basis             ... AVAILABLE
   # of basis functions in Aux-J            ...    567
   # of shells in Aux-J                     ...    185
   Maximum angular momentum in Aux-J        ...      4
Auxiliary J/K fitting basis                 ... NOT available
Auxiliary Correlation fitting basis         ... NOT available
Auxiliary 'external' fitting basis          ... NOT available
Integral threshold                          ...     2.500000e-11
Primitive cut-off                           ...     2.500000e-12
Primitive pair pre-selection threshold      ...     2.500000e-12

Calculating pre-screening integrals         ... done (  0.1 sec) Dimension = 209
Organizing shell pair data                  ... done (  0.1 sec)
Shell pair information
Total number of shell pairs                 ...     21945
Shell pairs after pre-screening             ...     18503
Total number of primitive shell pairs       ...     43252
Primitive shell pairs kept                  ...     29966
          la=0 lb=0:   4993 shell pairs
          la=1 lb=0:   6366 shell pairs
          la=1 lb=1:   1938 shell pairs
          la=2 lb=0:   2012 shell pairs
          la=2 lb=1:   1198 shell pairs
          la=2 lb=2:    202 shell pairs
          la=3 lb=0:    951 shell pairs
          la=3 lb=1:    598 shell pairs
          la=3 lb=2:    192 shell pairs
          la=3 lb=3:     53 shell pairs

Calculating one electron integrals          ... done (  0.1 sec)
Calculating RI/J V-Matrix + Cholesky decomp.... done (  0.0 sec)
Calculating Nuclear repulsion               ... done (  0.0 sec) ENN=    457.690974128800 Eh

SHARK setup successfully completed in   0.5 seconds

Maximum memory used throughout the entire GTOINT-calculation: 179.7 MB
-------------------------------------------------------------------------------
                                 ORCA SCF
-------------------------------------------------------------------------------

------------
SCF SETTINGS
------------
Hamiltonian:
 Density Functional     Method          .... DFT(GTOs)
 Exchange Functional    Exchange        .... PBE
   PBE kappa parameter   XKappa         ....  0.804000
   PBE mue parameter    XMuePBE         ....  0.219520
 Correlation Functional Correlation     .... PBE
   PBE beta parameter  CBetaPBE         ....  0.066725
 LDA part of GGA corr.  LDAOpt          .... PW91-LDA
 Gradients option       PostSCFGGA      .... off
 Hybrid DFT is turned on
   Fraction HF Exchange ScalHFX         ....  0.250000
   Scaling of DF-GGA-X  ScalDFX         ....  0.750000
   Scaling of DF-GGA-C  ScalDFC         ....  1.000000
   Scaling of DF-LDA-C  ScalLDAC        ....  1.000000
   Perturbative correction              ....  0.000000
   Density functional embedding theory  .... OFF
   NL short-range parameter             ....  6.900000
 RI-approximation to the Coulomb term is turned on
   Number of AuxJ basis functions       .... 567
   RIJ-COSX (HFX calculated with COS-X)).... on


General Settings:
 Integral files         IntName         .... quinoline_triplet_tilted
 Hartree-Fock type      HFTyp           .... UHF
 Total Charge           Charge          ....    0
 Multiplicity           Mult            ....    3
 Number of Electrons    NEL             ....   68
 Basis Dimension        Dim             ....  477
 Nuclear Repulsion      ENuc            ....    457.6909741288 Eh

Convergence Acceleration:
 DIIS                   CNVDIIS         .... on
   Start iteration      DIISMaxIt       ....    12
   Startup error        DIISStart       ....  0.200000
   # of expansion vecs  DIISMaxEq       ....     5
   Bias factor          DIISBfac        ....   1.050
   Max. coefficient     DIISMaxC        ....  10.000
 Trust-Rad. Augm. Hess. CNVTRAH         .... auto
   Auto Start mean grad. ratio tolernc. ....  1.125000
   Auto Start start iteration           ....    20
   Auto Start num. interpolation iter.  ....    10
   Max. Number of Micro iterations      ....    16
   Max. Number of Macro iterations      .... Maxiter - #DIIS iter
   Number of Davidson start vectors     ....     2
   Converg. threshold I  (grad. norm)   ....   1.000e-05
   Converg. threshold II (energy diff.) ....   1.000e-08
   Grad. Scal. Fac. for Micro threshold ....   0.100
   Minimum threshold for Micro iter.    ....   0.010
   NR start threshold (gradient norm)   ....   0.001
   Initial trust radius                 ....   0.400
   Minimum AH scaling param. (alpha)    ....   1.000
   Maximum AH scaling param. (alpha)    .... 1000.000
   Orbital update algorithm             .... Taylor
   White noise on init. David. guess    .... on
   Maximum white noise                  ....   0.010
   Quad. conv. algorithm                .... NR
 SOSCF                  CNVSOSCF        .... off
 Level Shifting         CNVShift        .... on
   Level shift para.    LevelShift      ....    0.2500
   Turn off err/grad.   ShiftErr        ....    0.0010
 Zerner damping         CNVZerner       .... off
 Static damping         CNVDamp         .... on
   Fraction old density DampFac         ....    0.7000
   Max. Damping (<1)    DampMax         ....    0.9800
   Min. Damping (>=0)   DampMin         ....    0.0000
   Turn off err/grad.   DampErr         ....    0.1000
 Fernandez-Rico         CNVRico         .... off

SCF Procedure:
 Maximum # iterations   MaxIter         ....   125
 SCF integral mode      SCFMode         .... Direct
   Integral package                     .... SHARK and LIBINT hybrid scheme
 Reset frequency        DirectResetFreq ....    20
 Integral Threshold     Thresh          ....  2.500e-11 Eh
 Primitive CutOff       TCut            ....  2.500e-12 Eh

Convergence Tolerance:
 Convergence Check Mode ConvCheckMode   .... Total+1el-Energy
 Convergence forced     ConvForced      .... 0
 Energy Change          TolE            ....  1.000e-08 Eh
 1-El. energy change                    ....  1.000e-05 Eh
 DIIS Error             TolErr          ....  5.000e-07


Diagonalization of the overlap matrix:
Smallest eigenvalue                        ... 1.025e-07
Time for diagonalization                   ...    0.029 sec
Threshold for overlap eigenvalues          ... 1.000e-08
Number of eigenvalues below threshold      ... 0
Time for construction of square roots      ...    0.013 sec
Total time needed                          ...    0.042 sec

Time for model grid setup =    0.360 sec

------------------------------
INITIAL GUESS: MODEL POTENTIAL
------------------------------
Loading Hartree-Fock densities                     ... done
Calculating cut-offs                               ... done
Initializing the effective Hamiltonian             ... done
Setting up the integral package (SHARK)            ... done
Starting the Coulomb interaction                   ... done (   0.9 sec)
Reading the grid                                   ... done
Mapping shells                                     ... done
Starting the XC term evaluation                    ... done (   1.1 sec)
  promolecular density results
     # of electrons  =     67.998118587
     EX              =    -54.557654607
     EC              =     -2.251630014
     EX+EC           =    -56.809284621
Transforming the Hamiltonian                       ... done (   0.0 sec)
Diagonalizing the Hamiltonian                      ... done (   0.0 sec)
Back transforming the eigenvectors                 ... done (   0.0 sec)
Now organizing SCF variables                       ... done
                      ------------------
                      INITIAL GUESS DONE (   2.4 sec)
                      ------------------
-------------------
DFT GRID GENERATION
-------------------

General Integration Accuracy     IntAcc      ... 4.388
Radial Grid Type                 RadialGrid  ... OptM3 with GC (2021)
Angular Grid (max. ang.)         AngularGrid ... 4 (Lebedev-302)
Angular grid pruning method      GridPruning ... 4 (adaptive)
Weight generation scheme         WeightScheme... Becke
Basis function cutoff            BFCut       ... 1.0000e-11
Integration weight cutoff        WCut        ... 1.0000e-14
Angular grids for H and He will be reduced by one unit
Partially contracted basis set               ... off
Rotationally invariant grid construction     ... off

Total number of grid points                  ...    86672
Total number of batches                      ...     1362
Average number of points per batch           ...       63
Average number of grid points per atom       ...     5098
Time for grid setup =    1.184 sec

--------------------
COSX GRID GENERATION
--------------------

GRIDX 1
-------
General Integration Accuracy     IntAcc      ... 3.816
Radial Grid Type                 RadialGrid  ... OptM3 with GC (2021)
Angular Grid (max. ang.)         AngularGrid ... 1 (Lebedev-50)
Angular grid pruning method      GridPruning ... 4 (adaptive)
Weight generation scheme         WeightScheme... Becke
Basis function cutoff            BFCut       ... 1.0000e-11
Integration weight cutoff        WCut        ... 1.0000e-14
Angular grids for H and He will be reduced by one unit
Partially contracted basis set               ... on
Rotationally invariant grid construction     ... off

Total number of grid points                  ...    10908
Total number of batches                      ...      180
Average number of points per batch           ...       60
Average number of grid points per atom       ...      642
UseSFitting                                  ... on

GRIDX 2
-------
General Integration Accuracy     IntAcc      ... 4.020
Radial Grid Type                 RadialGrid  ... OptM3 with GC (2021)
Angular Grid (max. ang.)         AngularGrid ... 2 (Lebedev-110)
Angular grid pruning method      GridPruning ... 4 (adaptive)
Weight generation scheme         WeightScheme... Becke
Basis function cutoff            BFCut       ... 1.0000e-11
Integration weight cutoff        WCut        ... 1.0000e-14
Angular grids for H and He will be reduced by one unit
Partially contracted basis set               ... on
Rotationally invariant grid construction     ... off

Total number of grid points                  ...    26910
Total number of batches                      ...      427
Average number of points per batch           ...       63
Average number of grid points per atom       ...     1583
UseSFitting                                  ... on

GRIDX 3
-------
General Integration Accuracy     IntAcc      ... 4.338
Radial Grid Type                 RadialGrid  ... OptM3 with GC (2021)
Angular Grid (max. ang.)         AngularGrid ... 3 (Lebedev-194)
Angular grid pruning method      GridPruning ... 4 (adaptive)
Weight generation scheme         WeightScheme... Becke
Basis function cutoff            BFCut       ... 1.0000e-11
Integration weight cutoff        WCut        ... 1.0000e-14
Angular grids for H and He will be reduced by one unit
Partially contracted basis set               ... on
Rotationally invariant grid construction     ... off

Total number of grid points                  ...    59573
Total number of batches                      ...      940
Average number of points per batch           ...       63
Average number of grid points per atom       ...     3504
UseSFitting                                  ... on

Time for X-Grid setup             =    2.304 sec

--------------
SCF ITERATIONS
--------------
ITER       Energy         Delta-E        Max-DP      RMS-DP      [F,P]     Damp
               ***  Starting incremental Fock matrix formation  ***
  0   -401.3119614381   0.000000000000 0.24277521  0.00118102  0.0938695 0.7000
  1   -401.3946008330  -0.082639394855 0.18337269  0.00087981  0.0425822 0.7000
                               ***Turning on DIIS***
  2   -401.4327908216  -0.038189988571 0.26429839  0.00133623  0.0172502 0.0000
  3   -401.4906682872  -0.057877465673 0.15902446  0.00100308  0.0235474 0.0000
  4   -401.5041165272  -0.013448239946 0.03090134  0.00023449  0.0049846 0.0000
  5   -401.5049467208  -0.000830193603 0.03165506  0.00014722  0.0034912 0.0000
  6   -401.5052136746  -0.000266953824 0.01822774  0.00007591  0.0013913 0.0000
  7   -401.5053253484  -0.000111673792 0.03390309  0.00019386  0.0008263 0.0000
               *** Restarting incremental Fock matrix formation ***
                                   *** Resetting DIIS ***
  8   -401.5053792682  -0.000053919758 0.04272959  0.00015366  0.0006259 0.0000
  9   -401.5053755976   0.000003670528 0.01203658  0.00004881  0.0008005 0.0000
 10   -401.5053970612  -0.000021463544 0.02268318  0.00010371  0.0002177 0.0000
 11   -401.5054001188  -0.000003057598 0.01619652  0.00010621  0.0001571 0.0000
 12   -401.5054031339  -0.000003015087 0.08962644  0.00032802  0.0001065 0.0000
 13   -401.5054045111  -0.000001377232 0.14011544  0.00058410  0.0000872 0.0000
 14   -401.5054052109  -0.000000699851 0.06643541  0.00032423  0.0000459 0.0000
 15   -401.5054054058  -0.000000194828 0.04823252  0.00020775  0.0000297 0.0000
 16   -401.5054054809  -0.000000075180 0.06402925  0.00031129  0.0000142 0.0000
 17   -401.5054055001  -0.000000019157 0.03482665  0.00014238  0.0000106 0.0000
 18   -401.5054055029  -0.000000002772 0.15490651  0.00054771  0.0000042 0.0000
 19   -401.5054054986   0.000000004295 0.07389266  0.00034871  0.0000027 0.0000
 20   -401.5054055040  -0.000000005427 0.03244630  0.00012963  0.0000014 0.0000
                 **** Energy Check signals convergence ****

               *****************************************************
               *                     SUCCESS                       *
               *           SCF CONVERGED AFTER  21 CYCLES          *
               *****************************************************

Old exchange energy                            =    -13.915191429 Eh
New exchange energy                            =    -13.915200898 Eh
Exchange energy change after final integration =     -0.000009469 Eh
Total energy after final integration           =   -401.505414968 Eh
Final COS-X integration done in                =    65.733 sec

----------------
TOTAL SCF ENERGY
----------------

Total Energy       :         -401.50541497 Eh          -10925.51778 eV

Components:
Nuclear Repulsion  :          457.69097413 Eh           12454.40458 eV
Electronic Energy  :         -859.19638910 Eh          -23379.92236 eV
One Electron Energy:        -1448.47096515 Eh          -39414.89878 eV
Two Electron Energy:          589.27457606 Eh           16034.97642 eV
Max COSX asymmetry :            0.00000019 Eh               0.00001 eV

Virial components:
Potential Energy   :         -800.82180495 Eh          -21791.46917 eV
Kinetic Energy     :          399.31638999 Eh           10865.95139 eV
Virial Ratio       :            2.00548193


DFT components:
N(Alpha)           :       35.000011542619 electrons
N(Beta)            :       33.000026098294 electrons
N(Total)           :       68.000037640913 electrons
E(X)               :      -41.655063391995 Eh       
E(C)               :       -2.251066883544 Eh       
E(XC)              :      -43.906130275539 Eh       
DFET-embed. en.    :        0.000000000000 Eh       

---------------
SCF CONVERGENCE
---------------

  Last Energy change         ...    4.2235e-09  Tolerance :   1.0000e-08
  Last MAX-Density change    ...    0.0000e+00  Tolerance :   1.0000e-07
  Last RMS-Density change    ...    0.0000e+00  Tolerance :   5.0000e-09
  Last DIIS Error            ...    1.1594e-06  Tolerance :   5.0000e-07

             **** THE GBW FILE WAS UPDATED (quinoline_triplet_tilted.gbw) ****
             **** DENSITY quinoline_triplet_tilted.scfp WAS UPDATED ****
             **** ENERGY FILE WAS UPDATED (quinoline_triplet_tilted.en.tmp) ****
----------------------
UHF SPIN CONTAMINATION
----------------------

Warning: in a DFT calculation there is little theoretical justification to 
         calculate <S**2> as in Hartree-Fock theory. We will do it anyways
         but you should keep in mind that the values have only limited relevance

Expectation value of <S**2>     :     2.031686
Ideal value S*(S+1) for S=1.0   :     2.000000
Deviation                       :     0.031686

             **** THE GBW FILE WAS UPDATED (quinoline_triplet_tilted.gbw) ****
             **** DENSITY quinoline_triplet_tilted.scfp WAS UPDATED ****
----------------
ORBITAL ENERGIES
----------------
                 SPIN UP ORBITALS
  NO   OCC          E(Eh)            E(eV) 
   0   1.0000     -14.385730      -391.4556 
   1   1.0000     -10.274505      -279.5835 
   2   1.0000     -10.261508      -279.2298 
   3   1.0000     -10.257654      -279.1250 
   4   1.0000     -10.256739      -279.1001 
   5   1.0000     -10.252784      -278.9924 
   6   1.0000     -10.252401      -278.9820 
   7   1.0000     -10.248567      -278.8777 
   8   1.0000     -10.247558      -278.8502 
   9   1.0000     -10.238967      -278.6164 
  10   1.0000      -0.968366       -26.3506 
  11   1.0000      -0.883806       -24.0496 
  12   1.0000      -0.835792       -22.7431 
  13   1.0000      -0.785815       -21.3831 
  14   1.0000      -0.770999       -20.9800 
  15   1.0000      -0.682023       -18.5588 
  16   1.0000      -0.648419       -17.6444 
  17   1.0000      -0.630833       -17.1658 
  18   1.0000      -0.553489       -15.0612 
  19   1.0000      -0.537980       -14.6392 
  20   1.0000      -0.524873       -14.2825 
  21   1.0000      -0.476842       -12.9755 
  22   1.0000      -0.464667       -12.6442 
  23   1.0000      -0.447947       -12.1893 
  24   1.0000      -0.441435       -12.0121 
  25   1.0000      -0.426347       -11.6015 
  26   1.0000      -0.417147       -11.3511 
  27   1.0000      -0.385771       -10.4974 
  28   1.0000      -0.379825       -10.3356 
  29   1.0000      -0.366168        -9.9639 
  30   1.0000      -0.342707        -9.3255 
  31   1.0000      -0.286055        -7.7840 
  32   1.0000      -0.277361        -7.5474 
  33   1.0000      -0.274025        -7.4566 
  34   1.0000      -0.151218        -4.1148 
  35   0.0000      -0.024027        -0.6538 
  36   0.0000      -0.021736        -0.5915 
  37   0.0000      -0.002188        -0.0595 
  38   0.0000       0.008672         0.2360 
  39   0.0000       0.015984         0.4350 
  40   0.0000       0.030048         0.8177 
  41   0.0000       0.033197         0.9033 
  42   0.0000       0.033715         0.9174 
  43   0.0000       0.040482         1.1016 
  44   0.0000       0.051341         1.3971 
  45   0.0000       0.053442         1.4542 
  46   0.0000       0.054730         1.4893 
  47   0.0000       0.057474         1.5639 
  48   0.0000       0.061181         1.6648 
  49   0.0000       0.074105         2.0165 
  50   0.0000       0.087715         2.3868 
  51   0.0000       0.088719         2.4142 
  52   0.0000       0.091036         2.4772 
  53   0.0000       0.094141         2.5617 
  54   0.0000       0.097663         2.6576 
  55   0.0000       0.100009         2.7214 
  56   0.0000       0.105541         2.8719 
  57   0.0000       0.112408         3.0588 
  58   0.0000       0.116053         3.1580 
  59   0.0000       0.119025         3.2388 
  60   0.0000       0.121390         3.3032 
  61   0.0000       0.124920         3.3993 
  62   0.0000       0.127489         3.4691 
  63   0.0000       0.128499         3.4966 
  64   0.0000       0.134121         3.6496 
  65   0.0000       0.135163         3.6780 
  66   0.0000       0.136394         3.7115 
  67   0.0000       0.146133         3.9765 
  68   0.0000       0.148352         4.0369 
  69   0.0000       0.151584         4.1248 
  70   0.0000       0.159231         4.3329 
  71   0.0000       0.172146         4.6843 
  72   0.0000       0.173735         4.7276 
  73   0.0000       0.175733         4.7819 
  74   0.0000       0.178045         4.8449 
  75   0.0000       0.180187         4.9031 
  76   0.0000       0.185466         5.0468 
  77   0.0000       0.187481         5.1016 
  78   0.0000       0.188143         5.1196 
  79   0.0000       0.188743         5.1359 
  80   0.0000       0.197683         5.3792 
  81   0.0000       0.205327         5.5872 
  82   0.0000       0.220480         5.9996 
  83   0.0000       0.224562         6.1106 
  84   0.0000       0.231467         6.2985 
  85   0.0000       0.236056         6.4234 
  86   0.0000       0.245211         6.6725 
  87   0.0000       0.248591         6.7645 
  88   0.0000       0.257682         7.0119 
  89   0.0000       0.262589         7.1454 
  90   0.0000       0.277998         7.5647 
  91   0.0000       0.282925         7.6988 
  92   0.0000       0.289629         7.8812 
  93   0.0000       0.290652         7.9090 
  94   0.0000       0.293149         7.9770 
  95   0.0000       0.298351         8.1185 
  96   0.0000       0.305695         8.3184 
  97   0.0000       0.310050         8.4369 
  98   0.0000       0.317440         8.6380 
  99   0.0000       0.330409         8.9909 
 100   0.0000       0.333732         9.0813 
 101   0.0000       0.338434         9.2093 
 102   0.0000       0.338823         9.2198 
 103   0.0000       0.343163         9.3379 
 104   0.0000       0.349112         9.4998 
 105   0.0000       0.359865         9.7924 
 106   0.0000       0.363839         9.9006 
 107   0.0000       0.370258        10.0752 
 108   0.0000       0.382956        10.4208 
 109   0.0000       0.385287        10.4842 
 110   0.0000       0.391933        10.6650 
 111   0.0000       0.399560        10.8726 
 112   0.0000       0.414232        11.2718 
 113   0.0000       0.418441        11.3864 
 114   0.0000       0.424457        11.5501 
 115   0.0000       0.433128        11.7860 
 116   0.0000       0.437684        11.9100 
 117   0.0000       0.439439        11.9577 
 118   0.0000       0.442495        12.0409 
 119   0.0000       0.455232        12.3875 
 120   0.0000       0.457192        12.4408 
 121   0.0000       0.476940        12.9782 
 122   0.0000       0.480449        13.0737 
 123   0.0000       0.490401        13.3445 
 124   0.0000       0.507353        13.8058 
 125   0.0000       0.515208        14.0195 
 126   0.0000       0.527392        14.3511 
 127   0.0000       0.532780        14.4977 
 128   0.0000       0.548203        14.9174 
 129   0.0000       0.561530        15.2800 
 130   0.0000       0.563660        15.3380 
 131   0.0000       0.582757        15.8576 
 132   0.0000       0.585915        15.9436 
 133   0.0000       0.605820        16.4852 
 134   0.0000       0.607167        16.5219 
 135   0.0000       0.629012        17.1163 
 136   0.0000       0.632916        17.2225 
 137   0.0000       0.645827        17.5739 
 138   0.0000       0.648610        17.6496 
 139   0.0000       0.665857        18.1189 
 140   0.0000       0.666872        18.1465 
 141   0.0000       0.675637        18.3850 
 142   0.0000       0.685497        18.6533 
 143   0.0000       0.690219        18.7818 
 144   0.0000       0.695112        18.9150 
 145   0.0000       0.698775        19.0146 
 146   0.0000       0.713976        19.4283 
 147   0.0000       0.717559        19.5258 
 148   0.0000       0.733948        19.9718 
 149   0.0000       0.736338        20.0368 
 150   0.0000       0.749355        20.3910 
 151   0.0000       0.768963        20.9245 
 152   0.0000       0.822880        22.3917 
 153   0.0000       0.832022        22.6405 
 154   0.0000       0.844540        22.9811 
 155   0.0000       0.863985        23.5102 
 156   0.0000       0.877103        23.8672 
 157   0.0000       0.881088        23.9756 
 158   0.0000       0.891141        24.2492 
 159   0.0000       0.911821        24.8119 
 160   0.0000       0.912351        24.8263 
 161   0.0000       0.934233        25.4218 
 162   0.0000       0.938723        25.5439 
 163   0.0000       0.954180        25.9645 
 164   0.0000       0.962075        26.1794 
 165   0.0000       0.976914        26.5832 
 166   0.0000       0.982430        26.7333 
 167   0.0000       0.999221        27.1902 
 168   0.0000       1.007202        27.4073 
 169   0.0000       1.014258        27.5994 
 170   0.0000       1.017192        27.6792 
 171   0.0000       1.033472        28.1222 
 172   0.0000       1.049024        28.5454 
 173   0.0000       1.052118        28.6296 
 174   0.0000       1.055291        28.7159 
 175   0.0000       1.056704        28.7544 
 176   0.0000       1.074962        29.2512 
 177   0.0000       1.080787        29.4097 
 178   0.0000       1.088478        29.6190 
 179   0.0000       1.095047        29.7977 
 180   0.0000       1.111804        30.2537 
 181   0.0000       1.114173        30.3182 
 182   0.0000       1.114826        30.3360 
 183   0.0000       1.118471        30.4351 
 184   0.0000       1.138118        30.9698 
 185   0.0000       1.151011        31.3206 
 186   0.0000       1.180407        32.1205 
 187   0.0000       1.203604        32.7517 
 188   0.0000       1.213957        33.0334 
 189   0.0000       1.214205        33.0402 
 190   0.0000       1.231091        33.4997 
 191   0.0000       1.238659        33.7056 
 192   0.0000       1.242225        33.8027 
 193   0.0000       1.259829        34.2817 
 194   0.0000       1.265668        34.4406 
 195   0.0000       1.275047        34.6958 
 196   0.0000       1.295902        35.2633 
 197   0.0000       1.295939        35.2643 
 198   0.0000       1.298469        35.3331 
 199   0.0000       1.319616        35.9086 
 200   0.0000       1.322401        35.9844 
 201   0.0000       1.334067        36.3018 
 202   0.0000       1.345155        36.6035 
 203   0.0000       1.355177        36.8762 
 204   0.0000       1.367960        37.2241 
 205   0.0000       1.393735        37.9254 
 206   0.0000       1.411663        38.4133 
 207   0.0000       1.424434        38.7608 
 208   0.0000       1.425783        38.7975 
 209   0.0000       1.433916        39.0188 
 210   0.0000       1.441087        39.2140 
 211   0.0000       1.465639        39.8821 
 212   0.0000       1.483005        40.3546 
 213   0.0000       1.489437        40.5296 
 214   0.0000       1.508477        41.0478 
 215   0.0000       1.512140        41.1474 
 216   0.0000       1.519723        41.3538 
 217   0.0000       1.525170        41.5020 
 218   0.0000       1.557809        42.3901 
 219   0.0000       1.576950        42.9110 
 220   0.0000       1.578749        42.9600 
 221   0.0000       1.584991        43.1298 
 222   0.0000       1.599046        43.5123 
 223   0.0000       1.624994        44.2183 
 224   0.0000       1.635357        44.5003 
 225   0.0000       1.657992        45.1163 
 226   0.0000       1.660639        45.1883 
 227   0.0000       1.683186        45.8018 
 228   0.0000       1.723833        46.9079 
 229   0.0000       1.741442        47.3871 
 230   0.0000       1.752466        47.6870 
 231   0.0000       1.773148        48.2498 
 232   0.0000       1.789380        48.6915 
 233   0.0000       1.806244        49.1504 
 234   0.0000       1.826772        49.7090 
 235   0.0000       1.843544        50.1654 
 236   0.0000       1.857040        50.5326 
 237   0.0000       1.872802        50.9615 
 238   0.0000       1.877765        51.0966 
 239   0.0000       1.901366        51.7388 
 240   0.0000       1.912534        52.0427 
 241   0.0000       1.936703        52.7004 
 242   0.0000       1.951751        53.1098 
 243   0.0000       1.966603        53.5140 
 244   0.0000       1.978653        53.8419 
 245   0.0000       2.012852        54.7725 
 246   0.0000       2.032030        55.2944 
 247   0.0000       2.119444        57.6730 
 248   0.0000       2.150074        58.5065 
 249   0.0000       2.189382        59.5761 
 250   0.0000       2.191063        59.6219 
 251   0.0000       2.224987        60.5450 
 252   0.0000       2.300638        62.6036 
 253   0.0000       2.353951        64.0543 
 254   0.0000       2.363677        64.3189 
 255   0.0000       2.419865        65.8479 
 256   0.0000       2.440531        66.4102 
 257   0.0000       2.455249        66.8107 
 258   0.0000       2.510759        68.3212 
 259   0.0000       2.529148        68.8216 
 260   0.0000       2.598791        70.7167 
 261   0.0000       2.634027        71.6755 
 262   0.0000       2.642952        71.9184 
 263   0.0000       2.663817        72.4862 
 264   0.0000       2.691527        73.2402 
 265   0.0000       2.758932        75.0743 
 266   0.0000       2.768362        75.3310 
 267   0.0000       2.808419        76.4210 
 268   0.0000       2.812059        76.5200 
 269   0.0000       2.815322        76.6088 
 270   0.0000       2.824120        76.8482 
 271   0.0000       2.834450        77.1293 
 272   0.0000       2.858068        77.7720 
 273   0.0000       2.873787        78.1997 
 274   0.0000       2.909557        79.1731 
 275   0.0000       2.934098        79.8409 
 276   0.0000       2.946488        80.1780 
 277   0.0000       2.947683        80.2105 
 278   0.0000       2.953721        80.3748 
 279   0.0000       2.969362        80.8004 
 280   0.0000       2.980683        81.1085 
 281   0.0000       2.988057        81.3092 
 282   0.0000       3.012609        81.9773 
 283   0.0000       3.019324        82.1600 
 284   0.0000       3.032339        82.5141 
 285   0.0000       3.040469        82.7354 
 286   0.0000       3.042452        82.7893 
 287   0.0000       3.071603        83.5826 
 288   0.0000       3.075916        83.6999 
 289   0.0000       3.088144        84.0327 
 290   0.0000       3.111697        84.6736 
 291   0.0000       3.117525        84.8322 
 292   0.0000       3.137085        85.3644 
 293   0.0000       3.151453        85.7554 
 294   0.0000       3.167517        86.1925 
 295   0.0000       3.175743        86.4164 
 296   0.0000       3.204666        87.2034 
 297   0.0000       3.207628        87.2840 
 298   0.0000       3.223242        87.7089 
 299   0.0000       3.225235        87.7631 
 300   0.0000       3.236427        88.0677 
 301   0.0000       3.262888        88.7877 
 302   0.0000       3.265702        88.8643 
 303   0.0000       3.285616        89.4062 
 304   0.0000       3.307599        90.0043 
 305   0.0000       3.318488        90.3007 
 306   0.0000       3.322288        90.4041 
 307   0.0000       3.323424        90.4350 
 308   0.0000       3.345860        91.0455 
 309   0.0000       3.373199        91.7894 
 310   0.0000       3.374621        91.8281 
 311   0.0000       3.401334        92.5550 
 312   0.0000       3.415306        92.9352 
 313   0.0000       3.436144        93.5022 
 314   0.0000       3.440064        93.6089 
 315   0.0000       3.456422        94.0540 
 316   0.0000       3.486611        94.8755 
 317   0.0000       3.502188        95.2994 
 318   0.0000       3.504694        95.3676 
 319   0.0000       3.526895        95.9717 
 320   0.0000       3.535536        96.2068 
 321   0.0000       3.543587        96.4259 
 322   0.0000       3.547482        96.5319 
 323   0.0000       3.560225        96.8787 
 324   0.0000       3.576504        97.3216 
 325   0.0000       3.583079        97.5005 
 326   0.0000       3.604236        98.0763 
 327   0.0000       3.608080        98.1808 
 328   0.0000       3.646589        99.2287 
 329   0.0000       3.661582        99.6367 
 330   0.0000       3.682945       100.2180 
 331   0.0000       3.701169       100.7139 
 332   0.0000       3.712783       101.0300 
 333   0.0000       3.714791       101.0846 
 334   0.0000       3.719072       101.2011 
 335   0.0000       3.740067       101.7724 
 336   0.0000       3.753298       102.1324 
 337   0.0000       3.754045       102.1528 
 338   0.0000       3.779977       102.8584 
 339   0.0000       3.794133       103.2436 
 340   0.0000       3.794189       103.2451 
 341   0.0000       3.805314       103.5479 
 342   0.0000       3.811523       103.7168 
 343   0.0000       3.813561       103.7723 
 344   0.0000       3.824843       104.0793 
 345   0.0000       3.828434       104.1770 
 346   0.0000       3.854494       104.8861 
 347   0.0000       3.858585       104.9974 
 348   0.0000       3.866885       105.2233 
 349   0.0000       3.877620       105.5154 
 350   0.0000       3.881515       105.6214 
 351   0.0000       3.912053       106.4524 
 352   0.0000       3.948057       107.4321 
 353   0.0000       3.963383       107.8491 
 354   0.0000       3.979083       108.2763 
 355   0.0000       4.009955       109.1164 
 356   0.0000       4.021377       109.4272 
 357   0.0000       4.035305       109.8062 
 358   0.0000       4.039389       109.9174 
 359   0.0000       4.061477       110.5184 
 360   0.0000       4.085642       111.1760 
 361   0.0000       4.091018       111.3222 
 362   0.0000       4.126683       112.2927 
 363   0.0000       4.135353       112.5287 
 364   0.0000       4.164071       113.3101 
 365   0.0000       4.174915       113.6052 
 366   0.0000       4.218458       114.7901 
 367   0.0000       4.239261       115.3561 
 368   0.0000       4.263883       116.0261 
 369   0.0000       4.265713       116.0759 
 370   0.0000       4.272658       116.2649 
 371   0.0000       4.288938       116.7079 
 372   0.0000       4.321530       117.5948 
 373   0.0000       4.333832       117.9296 
 374   0.0000       4.354309       118.4868 
 375   0.0000       4.364198       118.7559 
 376   0.0000       4.388204       119.4091 
 377   0.0000       4.403085       119.8140 
 378   0.0000       4.411564       120.0448 
 379   0.0000       4.421115       120.3047 
 380   0.0000       4.429986       120.5460 
 381   0.0000       4.471259       121.6692 
 382   0.0000       4.481304       121.9425 
 383   0.0000       4.490894       122.2034 
 384   0.0000       4.507637       122.6590 
 385   0.0000       4.556361       123.9849 
 386   0.0000       4.566400       124.2581 
 387   0.0000       4.571859       124.4066 
 388   0.0000       4.587795       124.8403 
 389   0.0000       4.590015       124.9007 
 390   0.0000       4.616890       125.6320 
 391   0.0000       4.622110       125.7740 
 392   0.0000       4.657843       126.7463 
 393   0.0000       4.661073       126.8342 
 394   0.0000       4.690390       127.6320 
 395   0.0000       4.740273       128.9894 
 396   0.0000       4.817770       131.0982 
 397   0.0000       4.867960       132.4639 
 398   0.0000       4.889869       133.0601 
 399   0.0000       4.954175       134.8100 
 400   0.0000       4.964331       135.0863 
 401   0.0000       5.013536       136.4252 
 402   0.0000       5.122339       139.3859 
 403   0.0000       5.158379       140.3666 
 404   0.0000       5.188518       141.1868 
 405   0.0000       5.228611       142.2778 
 406   0.0000       5.304238       144.3357 
 407   0.0000       5.351233       145.6144 
 408   0.0000       5.388029       146.6157 
 409   0.0000       5.420303       147.4940 
 410   0.0000       5.455623       148.4551 
 411   0.0000       5.524330       150.3247 
 412   0.0000       5.559047       151.2694 
 413   0.0000       5.636263       153.3705 
 414   0.0000       5.687216       154.7570 
 415   0.0000       5.688697       154.7973 
 416   0.0000       5.696564       155.0114 
 417   0.0000       5.727084       155.8419 
 418   0.0000       5.799466       157.8115 
 419   0.0000       5.811908       158.1501 
 420   0.0000       5.821006       158.3976 
 421   0.0000       5.851491       159.2272 
 422   0.0000       5.897098       160.4682 
 423   0.0000       5.909623       160.8090 
 424   0.0000       5.945146       161.7757 
 425   0.0000       6.000679       163.2868 
 426   0.0000       6.051900       164.6806 
 427   0.0000       6.074532       165.2964 
 428   0.0000       6.174856       168.0264 
 429   0.0000       6.281614       170.9314 
 430   0.0000       6.394704       174.0088 
 431   0.0000       6.440141       175.2451 
 432   0.0000       6.479804       176.3244 
 433   0.0000       6.538770       177.9290 
 434   0.0000       6.545585       178.1144 
 435   0.0000       6.558338       178.4614 
 436   0.0000       6.648955       180.9273 
 437   0.0000       6.792958       184.8458 
 438   0.0000       6.947316       189.0461 
 439   0.0000       7.138659       194.2528 
 440   0.0000       7.691784       209.3041 
 441   0.0000       7.885345       214.5712 
 442   0.0000       8.073510       219.6914 
 443   0.0000       8.126006       221.1199 
 444   0.0000       8.307460       226.0575 
 445   0.0000       8.518377       231.7968 
 446   0.0000       8.593251       233.8343 
 447   0.0000       8.827292       240.2028 
 448   0.0000       9.133354       248.5312 
 449   0.0000      11.198828       304.7356 
 450   0.0000      29.065373       790.9090 
 451   0.0000      29.272710       796.5509 
 452   0.0000      29.450937       801.4007 
 453   0.0000      29.469996       801.9194 
 454   0.0000      29.654617       806.9432 
 455   0.0000      29.841504       812.0286 
 456   0.0000      29.908021       813.8386 
 457   0.0000      30.096985       818.9806 
 458   0.0000      30.404822       827.3573 
 459   0.0000      37.351012      1016.3727 
 460   0.0000      37.390776      1017.4547 
 461   0.0000      37.476298      1019.7819 
 462   0.0000      37.555196      1021.9288 
 463   0.0000      37.618257      1023.6448 
 464   0.0000      37.792020      1028.3731 
 465   0.0000      37.854517      1030.0738 
 466   0.0000      42.069959      1144.7818 
 467   0.0000     133.628272      3636.2102 
 468   0.0000     133.845298      3642.1157 
 469   0.0000     134.036837      3647.3277 
 470   0.0000     134.061740      3648.0054 
 471   0.0000     134.255422      3653.2758 
 472   0.0000     134.456787      3658.7552 
 473   0.0000     134.528274      3660.7004 
 474   0.0000     134.741349      3666.4985 
 475   0.0000     135.074532      3675.5649 
 476   0.0000     191.807744      5219.3541 

                 SPIN DOWN ORBITALS
  NO   OCC          E(Eh)            E(eV) 
   0   1.0000     -14.378210      -391.2510 
   1   1.0000     -10.276655      -279.6420 
   2   1.0000     -10.254899      -279.0500 
   3   1.0000     -10.254844      -279.0485 
   4   1.0000     -10.252462      -278.9837 
   5   1.0000     -10.250650      -278.9344 
   6   1.0000     -10.248439      -278.8742 
   7   1.0000     -10.247261      -278.8422 
   8   1.0000     -10.240887      -278.6687 
   9   1.0000     -10.237754      -278.5835 
  10   1.0000      -0.957170       -26.0459 
  11   1.0000      -0.870187       -23.6790 
  12   1.0000      -0.822851       -22.3909 
  13   1.0000      -0.781472       -21.2649 
  14   1.0000      -0.749239       -20.3878 
  15   1.0000      -0.667848       -18.1731 
  16   1.0000      -0.643696       -17.5159 
  17   1.0000      -0.621116       -16.9014 
  18   1.0000      -0.544894       -14.8273 
  19   1.0000      -0.532964       -14.5027 
  20   1.0000      -0.520484       -14.1631 
  21   1.0000      -0.475261       -12.9325 
  22   1.0000      -0.459243       -12.4966 
  23   1.0000      -0.443437       -12.0665 
  24   1.0000      -0.421807       -11.4780 
  25   1.0000      -0.416510       -11.3338 
  26   1.0000      -0.413076       -11.2404 
  27   1.0000      -0.382269       -10.4021 
  28   1.0000      -0.361718        -9.8428 
  29   1.0000      -0.338893        -9.2217 
  30   1.0000      -0.295332        -8.0364 
  31   1.0000      -0.272518        -7.4156 
  32   1.0000      -0.270039        -7.3481 
  33   0.0000      -0.160656        -4.3717 
  34   0.0000      -0.045433        -1.2363 
  35   0.0000      -0.012613        -0.3432 
  36   0.0000      -0.000155        -0.0042 
  37   0.0000       0.010297         0.2802 
  38   0.0000       0.013796         0.3754 
  39   0.0000       0.017580         0.4784 
  40   0.0000       0.031719         0.8631 
  41   0.0000       0.034426         0.9368 
  42   0.0000       0.042329         1.1518 
  43   0.0000       0.042717         1.1624 
  44   0.0000       0.054590         1.4855 
  45   0.0000       0.058517         1.5923 
  46   0.0000       0.058875         1.6021 
  47   0.0000       0.065653         1.7865 
  48   0.0000       0.077656         2.1131 
  49   0.0000       0.078696         2.1414 
  50   0.0000       0.088589         2.4106 
  51   0.0000       0.092488         2.5167 
  52   0.0000       0.095940         2.6107 
  53   0.0000       0.100226         2.7273 
  54   0.0000       0.101921         2.7734 
  55   0.0000       0.106079         2.8865 
  56   0.0000       0.107633         2.9288 
  57   0.0000       0.114109         3.1051 
  58   0.0000       0.117432         3.1955 
  59   0.0000       0.122464         3.3324 
  60   0.0000       0.124110         3.3772 
  61   0.0000       0.126253         3.4355 
  62   0.0000       0.130008         3.5377 
  63   0.0000       0.133440         3.6311 
  64   0.0000       0.136847         3.7238 
  65   0.0000       0.137433         3.7397 
  66   0.0000       0.138233         3.7615 
  67   0.0000       0.148285         4.0350 
  68   0.0000       0.150209         4.0874 
  69   0.0000       0.153873         4.1871 
  70   0.0000       0.162018         4.4087 
  71   0.0000       0.175565         4.7774 
  72   0.0000       0.179725         4.8906 
  73   0.0000       0.181045         4.9265 
  74   0.0000       0.182402         4.9634 
  75   0.0000       0.185877         5.0580 
  76   0.0000       0.188468         5.1285 
  77   0.0000       0.190789         5.1916 
  78   0.0000       0.195888         5.3304 
  79   0.0000       0.197440         5.3726 
  80   0.0000       0.200640         5.4597 
  81   0.0000       0.212770         5.7898 
  82   0.0000       0.226544         6.1646 
  83   0.0000       0.229725         6.2511 
  84   0.0000       0.234187         6.3726 
  85   0.0000       0.241128         6.5614 
  86   0.0000       0.248133         6.7520 
  87   0.0000       0.252038         6.8583 
  88   0.0000       0.261047         7.1035 
  89   0.0000       0.268365         7.3026 
  90   0.0000       0.285199         7.7607 
  91   0.0000       0.286853         7.8057 
  92   0.0000       0.291962         7.9447 
  93   0.0000       0.297724         8.1015 
  94   0.0000       0.301076         8.1927 
  95   0.0000       0.304420         8.2837 
  96   0.0000       0.311103         8.4655 
  97   0.0000       0.313755         8.5377 
  98   0.0000       0.324501         8.8301 
  99   0.0000       0.328952         8.9512 
 100   0.0000       0.334986         9.1154 
 101   0.0000       0.341013         9.2794 
 102   0.0000       0.342310         9.3147 
 103   0.0000       0.347931         9.4677 
 104   0.0000       0.359865         9.7924 
 105   0.0000       0.364337         9.9141 
 106   0.0000       0.367541        10.0013 
 107   0.0000       0.381428        10.3792 
 108   0.0000       0.389722        10.6049 
 109   0.0000       0.394221        10.7273 
 110   0.0000       0.395242        10.7551 
 111   0.0000       0.404015        10.9938 
 112   0.0000       0.417486        11.3604 
 113   0.0000       0.422923        11.5083 
 114   0.0000       0.429710        11.6930 
 115   0.0000       0.437552        11.9064 
 116   0.0000       0.441339        12.0095 
 117   0.0000       0.441808        12.0222 
 118   0.0000       0.444502        12.0955 
 119   0.0000       0.461278        12.5520 
 120   0.0000       0.466612        12.6972 
 121   0.0000       0.474863        12.9217 
 122   0.0000       0.483427        13.1547 
 123   0.0000       0.494203        13.4480 
 124   0.0000       0.512499        13.9458 
 125   0.0000       0.518835        14.1182 
 126   0.0000       0.532462        14.4890 
 127   0.0000       0.541796        14.7430 
 128   0.0000       0.550984        14.9930 
 129   0.0000       0.568605        15.4725 
 130   0.0000       0.573131        15.5957 
 131   0.0000       0.584076        15.8935 
 132   0.0000       0.588388        16.0108 
 133   0.0000       0.610147        16.6029 
 134   0.0000       0.611319        16.6348 
 135   0.0000       0.630818        17.1654 
 136   0.0000       0.637579        17.3494 
 137   0.0000       0.649241        17.6668 
 138   0.0000       0.657764        17.8987 
 139   0.0000       0.667444        18.1621 
 140   0.0000       0.671532        18.2733 
 141   0.0000       0.690602        18.7922 
 142   0.0000       0.690643        18.7933 
 143   0.0000       0.696584        18.9550 
 144   0.0000       0.703406        19.1406 
 145   0.0000       0.708707        19.2849 
 146   0.0000       0.717738        19.5306 
 147   0.0000       0.726585        19.7714 
 148   0.0000       0.737571        20.0703 
 149   0.0000       0.746296        20.3077 
 150   0.0000       0.753268        20.4975 
 151   0.0000       0.774848        21.0847 
 152   0.0000       0.834780        22.7155 
 153   0.0000       0.840470        22.8703 
 154   0.0000       0.851732        23.1768 
 155   0.0000       0.870244        23.6806 
 156   0.0000       0.879344        23.9282 
 157   0.0000       0.885072        24.0840 
 158   0.0000       0.896010        24.3817 
 159   0.0000       0.914846        24.8942 
 160   0.0000       0.923571        25.1317 
 161   0.0000       0.942356        25.6428 
 162   0.0000       0.945506        25.7285 
 163   0.0000       0.957118        26.0445 
 164   0.0000       0.971827        26.4448 
 165   0.0000       0.986224        26.8365 
 166   0.0000       0.990066        26.9411 
 167   0.0000       1.002489        27.2791 
 168   0.0000       1.016924        27.6719 
 169   0.0000       1.017016        27.6744 
 170   0.0000       1.022393        27.8207 
 171   0.0000       1.035646        28.1814 
 172   0.0000       1.050936        28.5974 
 173   0.0000       1.059701        28.8359 
 174   0.0000       1.066043        29.0085 
 175   0.0000       1.071693        29.1623 
 176   0.0000       1.078484        29.3471 
 177   0.0000       1.094962        29.7954 
 178   0.0000       1.099913        29.9302 
 179   0.0000       1.104715        30.0608 
 180   0.0000       1.116684        30.3865 
 181   0.0000       1.122690        30.5499 
 182   0.0000       1.124227        30.5918 
 183   0.0000       1.126410        30.6512 
 184   0.0000       1.150147        31.2971 
 185   0.0000       1.171795        31.8862 
 186   0.0000       1.185986        32.2723 
 187   0.0000       1.218715        33.1629 
 188   0.0000       1.219485        33.1839 
 189   0.0000       1.226074        33.3632 
 190   0.0000       1.244763        33.8717 
 191   0.0000       1.245317        33.8868 
 192   0.0000       1.247266        33.9398 
 193   0.0000       1.264176        34.4000 
 194   0.0000       1.280334        34.8397 
 195   0.0000       1.282206        34.8906 
 196   0.0000       1.302245        35.4359 
 197   0.0000       1.303704        35.4756 
 198   0.0000       1.308324        35.6013 
 199   0.0000       1.329621        36.1808 
 200   0.0000       1.329713        36.1833 
 201   0.0000       1.338099        36.4115 
 202   0.0000       1.354420        36.8556 
 203   0.0000       1.358075        36.9551 
 204   0.0000       1.379049        37.5258 
 205   0.0000       1.398952        38.0674 
 206   0.0000       1.416934        38.5567 
 207   0.0000       1.430175        38.9170 
 208   0.0000       1.432770        38.9877 
 209   0.0000       1.444445        39.3054 
 210   0.0000       1.445883        39.3445 
 211   0.0000       1.470805        40.0226 
 212   0.0000       1.489282        40.5254 
 213   0.0000       1.496114        40.7113 
 214   0.0000       1.516495        41.2659 
 215   0.0000       1.524122        41.4735 
 216   0.0000       1.525490        41.5107 
 217   0.0000       1.530330        41.6424 
 218   0.0000       1.562778        42.5254 
 219   0.0000       1.585511        43.1439 
 220   0.0000       1.590227        43.2723 
 221   0.0000       1.593020        43.3483 
 222   0.0000       1.606861        43.7249 
 223   0.0000       1.632113        44.4120 
 224   0.0000       1.649873        44.8953 
 225   0.0000       1.664086        45.2821 
 226   0.0000       1.667473        45.3743 
 227   0.0000       1.693553        46.0839 
 228   0.0000       1.741012        47.3754 
 229   0.0000       1.745299        47.4920 
 230   0.0000       1.757436        47.8223 
 231   0.0000       1.778478        48.3948 
 232   0.0000       1.795820        48.8667 
 233   0.0000       1.812568        49.3225 
 234   0.0000       1.833063        49.8802 
 235   0.0000       1.850914        50.3659 
 236   0.0000       1.861639        50.6578 
 237   0.0000       1.881813        51.2067 
 238   0.0000       1.884684        51.2849 
 239   0.0000       1.904467        51.8232 
 240   0.0000       1.916521        52.1512 
 241   0.0000       1.941215        52.8231 
 242   0.0000       1.956587        53.2414 
 243   0.0000       1.981104        53.9086 
 244   0.0000       1.982481        53.9460 
 245   0.0000       2.018470        54.9254 
 246   0.0000       2.036606        55.4189 
 247   0.0000       2.123904        57.7944 
 248   0.0000       2.157328        58.7039 
 249   0.0000       2.193731        59.6945 
 250   0.0000       2.198827        59.8331 
 251   0.0000       2.229585        60.6701 
 252   0.0000       2.305299        62.7304 
 253   0.0000       2.358358        64.1742 
 254   0.0000       2.375866        64.6506 
 255   0.0000       2.424996        65.9875 
 256   0.0000       2.447499        66.5998 
 257   0.0000       2.466511        67.1172 
 258   0.0000       2.514319        68.4181 
 259   0.0000       2.534028        68.9544 
 260   0.0000       2.612336        71.0853 
 261   0.0000       2.637423        71.7679 
 262   0.0000       2.651348        72.1469 
 263   0.0000       2.668007        72.6002 
 264   0.0000       2.706449        73.6462 
 265   0.0000       2.773900        75.4817 
 266   0.0000       2.780702        75.6667 
 267   0.0000       2.816178        76.6321 
 268   0.0000       2.822453        76.8028 
 269   0.0000       2.829902        77.0055 
 270   0.0000       2.833718        77.1094 
 271   0.0000       2.841051        77.3089 
 272   0.0000       2.869496        78.0830 
 273   0.0000       2.889065        78.6155 
 274   0.0000       2.926519        79.6346 
 275   0.0000       2.944617        80.1271 
 276   0.0000       2.959442        80.5305 
 277   0.0000       2.960481        80.5588 
 278   0.0000       2.968687        80.7821 
 279   0.0000       2.989375        81.3450 
 280   0.0000       2.992225        81.4226 
 281   0.0000       3.001374        81.6715 
 282   0.0000       3.020399        82.1892 
 283   0.0000       3.030708        82.4698 
 284   0.0000       3.038886        82.6923 
 285   0.0000       3.054205        83.1091 
 286   0.0000       3.060226        83.2730 
 287   0.0000       3.080562        83.8263 
 288   0.0000       3.085767        83.9680 
 289   0.0000       3.099949        84.3539 
 290   0.0000       3.121962        84.9529 
 291   0.0000       3.122919        84.9789 
 292   0.0000       3.138547        85.4042 
 293   0.0000       3.165356        86.1337 
 294   0.0000       3.174118        86.3722 
 295   0.0000       3.184488        86.6543 
 296   0.0000       3.213893        87.4545 
 297   0.0000       3.215213        87.4904 
 298   0.0000       3.234162        88.0060 
 299   0.0000       3.236510        88.0699 
 300   0.0000       3.242595        88.2355 
 301   0.0000       3.275607        89.1338 
 302   0.0000       3.278398        89.2098 
 303   0.0000       3.300146        89.8015 
 304   0.0000       3.323863        90.4469 
 305   0.0000       3.330759        90.6346 
 306   0.0000       3.334099        90.7255 
 307   0.0000       3.335325        90.7588 
 308   0.0000       3.353541        91.2545 
 309   0.0000       3.380974        92.0010 
 310   0.0000       3.386289        92.1456 
 311   0.0000       3.405902        92.6793 
 312   0.0000       3.425260        93.2061 
 313   0.0000       3.452328        93.9426 
 314   0.0000       3.453094        93.9635 
 315   0.0000       3.462392        94.2165 
 316   0.0000       3.501092        95.2695 
 317   0.0000       3.511405        95.5502 
 318   0.0000       3.511558        95.5544 
 319   0.0000       3.533647        96.1554 
 320   0.0000       3.547855        96.5420 
 321   0.0000       3.548437        96.5579 
 322   0.0000       3.559007        96.8455 
 323   0.0000       3.570317        97.1533 
 324   0.0000       3.584695        97.5445 
 325   0.0000       3.596947        97.8779 
 326   0.0000       3.607452        98.1638 
 327   0.0000       3.618112        98.4538 
 328   0.0000       3.660039        99.5947 
 329   0.0000       3.667143        99.7880 
 330   0.0000       3.692276       100.4719 
 331   0.0000       3.709981       100.9537 
 332   0.0000       3.718647       101.1895 
 333   0.0000       3.723776       101.3291 
 334   0.0000       3.728209       101.4497 
 335   0.0000       3.753769       102.1452 
 336   0.0000       3.757956       102.2592 
 337   0.0000       3.774615       102.7125 
 338   0.0000       3.792191       103.1908 
 339   0.0000       3.799154       103.3802 
 340   0.0000       3.811738       103.7227 
 341   0.0000       3.816478       103.8516 
 342   0.0000       3.821240       103.9812 
 343   0.0000       3.825441       104.0955 
 344   0.0000       3.834115       104.3316 
 345   0.0000       3.845360       104.6376 
 346   0.0000       3.863330       105.1265 
 347   0.0000       3.870666       105.3262 
 348   0.0000       3.873720       105.4093 
 349   0.0000       3.891127       105.8830 
 350   0.0000       3.896127       106.0190 
 351   0.0000       3.917193       106.5922 
 352   0.0000       3.954276       107.6013 
 353   0.0000       3.974828       108.1606 
 354   0.0000       3.982005       108.3559 
 355   0.0000       4.015696       109.2727 
 356   0.0000       4.023813       109.4935 
 357   0.0000       4.042717       110.0079 
 358   0.0000       4.044348       110.0523 
 359   0.0000       4.067246       110.6754 
 360   0.0000       4.091499       111.3353 
 361   0.0000       4.100512       111.5806 
 362   0.0000       4.131316       112.4188 
 363   0.0000       4.140931       112.6805 
 364   0.0000       4.167193       113.3951 
 365   0.0000       4.184101       113.8552 
 366   0.0000       4.223090       114.9161 
 367   0.0000       4.243668       115.4761 
 368   0.0000       4.267893       116.1353 
 369   0.0000       4.275130       116.3322 
 370   0.0000       4.275286       116.3365 
 371   0.0000       4.292442       116.8033 
 372   0.0000       4.326445       117.7286 
 373   0.0000       4.339179       118.0751 
 374   0.0000       4.357529       118.5744 
 375   0.0000       4.374642       119.0401 
 376   0.0000       4.393000       119.5396 
 377   0.0000       4.409727       119.9948 
 378   0.0000       4.415767       120.1591 
 379   0.0000       4.432211       120.6066 
 380   0.0000       4.435018       120.6830 
 381   0.0000       4.474737       121.7638 
 382   0.0000       4.493506       122.2745 
 383   0.0000       4.497524       122.3839 
 384   0.0000       4.522309       123.0583 
 385   0.0000       4.569848       124.3519 
 386   0.0000       4.569881       124.3528 
 387   0.0000       4.577795       124.5681 
 388   0.0000       4.593194       124.9872 
 389   0.0000       4.597266       125.0980 
 390   0.0000       4.620113       125.7197 
 391   0.0000       4.631499       126.0295 
 392   0.0000       4.664809       126.9359 
 393   0.0000       4.673031       127.1596 
 394   0.0000       4.694566       127.7456 
 395   0.0000       4.751431       129.2930 
 396   0.0000       4.824771       131.2887 
 397   0.0000       4.887183       132.9870 
 398   0.0000       4.892022       133.1187 
 399   0.0000       4.969235       135.2198 
 400   0.0000       4.975478       135.3896 
 401   0.0000       5.030490       136.8866 
 402   0.0000       5.134051       139.7046 
 403   0.0000       5.173299       140.7726 
 404   0.0000       5.196733       141.4103 
 405   0.0000       5.241667       142.6330 
 406   0.0000       5.308563       144.4534 
 407   0.0000       5.355513       145.7309 
 408   0.0000       5.391014       146.6970 
 409   0.0000       5.423393       147.5780 
 410   0.0000       5.459314       148.5555 
 411   0.0000       5.528066       150.4263 
 412   0.0000       5.564497       151.4177 
 413   0.0000       5.640464       153.4848 
 414   0.0000       5.689848       154.8286 
 415   0.0000       5.700624       155.1219 
 416   0.0000       5.716896       155.5647 
 417   0.0000       5.732318       155.9843 
 418   0.0000       5.800411       157.8372 
 419   0.0000       5.813494       158.1932 
 420   0.0000       5.823008       158.4521 
 421   0.0000       5.852641       159.2585 
 422   0.0000       5.901187       160.5795 
 423   0.0000       5.913692       160.9197 
 424   0.0000       5.946763       161.8196 
 425   0.0000       6.001809       163.3175 
 426   0.0000       6.053462       164.7231 
 427   0.0000       6.076969       165.3627 
 428   0.0000       6.179358       168.1489 
 429   0.0000       6.284471       171.0091 
 430   0.0000       6.396613       174.0607 
 431   0.0000       6.442092       175.2982 
 432   0.0000       6.481221       176.3630 
 433   0.0000       6.540900       177.9869 
 434   0.0000       6.546793       178.1473 
 435   0.0000       6.560088       178.5091 
 436   0.0000       6.651758       181.0035 
 437   0.0000       6.794636       184.8914 
 438   0.0000       6.950759       189.1398 
 439   0.0000       7.141025       194.3172 
 440   0.0000       7.699540       209.5151 
 441   0.0000       7.891303       214.7333 
 442   0.0000       8.080342       219.8773 
 443   0.0000       8.136312       221.4003 
 444   0.0000       8.318543       226.3590 
 445   0.0000       8.526761       232.0250 
 446   0.0000       8.594944       233.8803 
 447   0.0000       8.833883       240.3822 
 448   0.0000       9.138313       248.6661 
 449   0.0000      11.213991       305.1482 
 450   0.0000      29.071335       791.0712 
 451   0.0000      29.277725       796.6874 
 452   0.0000      29.455990       801.5382 
 453   0.0000      29.478176       802.1419 
 454   0.0000      29.662692       807.1629 
 455   0.0000      29.850560       812.2750 
 456   0.0000      29.909326       813.8741 
 457   0.0000      30.103203       819.1498 
 458   0.0000      30.407987       827.4434 
 459   0.0000      37.349150      1016.3221 
 460   0.0000      37.389344      1017.4158 
 461   0.0000      37.473200      1019.6976 
 462   0.0000      37.552975      1021.8684 
 463   0.0000      37.614758      1023.5496 
 464   0.0000      37.790384      1028.3286 
 465   0.0000      37.852312      1030.0138 
 466   0.0000      42.081816      1145.1044 
 467   0.0000     133.629769      3636.2509 
 468   0.0000     133.846506      3642.1486 
 469   0.0000     134.037857      3647.3555 
 470   0.0000     134.064036      3648.0679 
 471   0.0000     134.257502      3653.3323 
 472   0.0000     134.459048      3658.8167 
 473   0.0000     134.528432      3660.7048 
 474   0.0000     134.742859      3666.5396 
 475   0.0000     135.075243      3675.5842 
 476   0.0000     191.810877      5219.4393 

                    ********************************
                    * MULLIKEN POPULATION ANALYSIS *
                    ********************************

--------------------------------------------
MULLIKEN ATOMIC CHARGES AND SPIN POPULATIONS
[...]
Average number of grid points per atom       ...     5098

  One-electron GIAO integrals (SHARK)     ... done
  Calculating G(B)[P]                     ... (RI-J: SHARK-ok) (COSX-ok) (add-J+K:ok) => dG/dB done
  DFT XC-terms                            ... done
  Extracting occupied and virtual blocks  ... 
  Operator  0  NO=  35 NV= 442 
  Operator  1  NO=  33 NV= 444 
  Transforming and RHS contribution       ... done
  Adding eps_i * S(B)_ai terms            ... done
  Projecting overlap derivatives          ... done
  Building G[dS/dB_ij] (COSX)             ... done
  Transforming to MO basis                ... done
  Summing G[dS/dB_ij] into RHS contribs.  ... done

  GIAO profiling information: 
    Total GIAO time               ...     161.1 sec
       GIAO 1-electron integrals  ...       0.2 sec (  0.1%)
       GIAO G(dS/dB) terms        ...      10.5 sec (  6.5%)
       GIAO RI-J                  ...      12.6 sec (  7.8%)
       GIAO COSX                  ...      53.7 sec ( 33.3%)
       GIAO XC-terms              ...      83.0 sec ( 51.5%)
       Right hand side assembly   ...       0.1 sec (  0.0%)

  GIAO right hand side done


------------------------------------------------------------------------------
                           ORCA CP-SCF CALCULATION
------------------------------------------------------------------------------

Input orbitals are from        ... quinoline_triplet_tilted.gbw
Input Perturbation             ... quinoline_triplet_tilted.pin.tmp
Wavefunction output            ... quinoline_triplet_tilted.pout.tmp
Perturbation mode              ... Imaginary perturbation
Solver                         ... POPLE
Max. number of iterations      ... 64
Convergence tolerance          ... 1.000e-04
Integral handling              ... Direct
DFT GridXC                     ... 1
COSX GridX                     ... 1
COSX IntAccX                   ... 3.067
COSX Algorithm                 ... Auto
Number of perturbations        ... 3
Number of operators            ... 2
Orbital ranges used for CP-SCF:
 Operator 0:  Orbitals   0... 34  to  35...476
 Operator 1:  Orbitals   0... 32  to  33...476
Variables per perturbation     ... 30122
DFT calculation                         ... on
XC functional terms                     ... off
Hybrid DFT                              ... on
   Exchange mixing (SCF)                ...  0.250
   Exchange mixing (CP-SCF)             ...  0.250
   GGA exch. scaling(SCF)               ...  0.750
   GGA exch. scaling (CP-SCF)           ...  0.750
   GGA corr. scaling (SCF)              ...  1.000
   GGA corr. scaling (CP-SCF)           ...  1.000

CP-SCF GRID
-----------

General Integration Accuracy     IntAcc      ... 3.467
Radial Grid Type                 RadialGrid  ... OptM3 with GC (2021)
Angular Grid (max. ang.)         AngularGrid ... 1 (Lebedev-50)
Angular grid pruning method      GridPruning ... 4 (adaptive)
Weight generation scheme         WeightScheme... Becke
Basis function cutoff            BFCut       ... 1.0000e-11
Integration weight cutoff        WCut        ... 1.0000e-14
Angular grids for H and He will be reduced by one unit
Partially contracted basis set               ... off
Rotationally invariant grid construction     ... off

Total number of grid points                  ...    12801
Total number of batches                      ...      208
Average number of points per batch           ...       61
Average number of grid points per atom       ...      753

CP-SCF GRIDX
------------

General Integration Accuracy     IntAcc      ... 3.067
Radial Grid Type                 RadialGrid  ... OptM3 with GC (2021)
Angular Grid (max. ang.)         AngularGrid ... 1 (Lebedev-50)
Angular grid pruning method      GridPruning ... 4 (adaptive)
Weight generation scheme         WeightScheme... Becke
Basis function cutoff            BFCut       ... 1.0000e-11
Integration weight cutoff        WCut        ... 1.0000e-14
Angular grids for H and He will be reduced by one unit
Partially contracted basis set               ... on
Rotationally invariant grid construction     ... off

Total number of grid points                  ...     5776
Total number of batches                      ...       99
Average number of points per batch           ...       58
Average number of grid points per atom       ...      340

Memory available               ... 637.3 MB
Memory needed per perturbation ...  39.0 MB
Perturbations treated per batch... 3
Number of batches              ... 1
     CP-SCF ITERATION   0:   3.3891e+00 (  10.4 sec   0/  3 done)
     CP-SCF ITERATION   1:   3.9062e-01 (  10.1 sec   0/  3 done)
     CP-SCF ITERATION   2:   7.1716e-02 (  10.3 sec   0/  3 done)
     CP-SCF ITERATION   3:   1.6094e-02 (  10.2 sec   0/  3 done)
     CP-SCF ITERATION   4:   3.5080e-03 (  10.3 sec   0/  3 done)
     CP-SCF ITERATION   5:   8.0489e-04 (  10.3 sec   1/  3 done)
     CP-SCF ITERATION   6:   1.1462e-04 (   8.5 sec   1/  3 done)
     CP-SCF ITERATION   7:   1.6739e-05 (   8.5 sec   3/  3 done)
                    *** THE CP-SCF HAS CONVERGED ***

Forming final perturbed densities           ... done
Transforming perturbed density to AO basis  ... done

Magnetic field perturbation calculated in 240.251 sec
GIAO: Diamagnetic terms      (analytic)     (SHARK) ... done
GIAO: 1el-Paramagnetic terms (analytic)     (SHARK) ... done

-------------------
ELECTRONIC G-MATRIX
-------------------

 The g-matrix: 
              2.0023834   -0.0003097    0.0003785
             -0.0001495    2.0033024   -0.0002336
              0.0005663   -0.0003346    2.0031726

 gel          2.0023193    2.0023193    2.0023193
 gRMC        -0.0001541   -0.0001541   -0.0001541
 gDSO(tot)    0.0000350    0.0000917    0.0000911
 gPSO(tot)   -0.0000450    0.0007387    0.0014514
             ----------   ----------   ----------
 g(tot)       2.0021552    2.0029956    2.0037077 iso=  2.0029528
 Delta-g     -0.0001641    0.0006763    0.0013884 iso=  0.0006335
 Orientation: 
  X          -0.9125608   -0.2100248    0.3508881
  Y          -0.0834989   -0.7442686   -0.6626404
  Z           0.4003259   -0.6339983    0.6616535

Notes:  (1) The g-matrix conforms to the "BgS" spin Hamiltonian convention. 
        (2) The principal values are square roots of the eigenvalues of g*gT.
        (3) Orientations are eigenvectors of g*gT written as column vectors.
        (4) Individual contributions are projections of the full matrices onto the eigenvectors of g*gT.
        (5) Tensor is right-handed.

Active orbitals for UNO spin density= 33 .. 34

Starting the spin-spin zero-field-splitting computation (UNO)...
SHARK: Electron-Electron contact term tr(DSS) =    0.0000 1/cm
                                      tr(DSSJ)=    0.3578 1/cm
                                      tr(DSSK)=   -0.3578 1/cm

                        ... done with spin-spin calculation

---------------------------
ZERO-FIELD-SPLITTING TENSOR
---------------------------

raw-matrix : 
   0.022239     0.001026    -0.021486  
   0.001026    -0.019667     0.001778  
  -0.021486     0.001778    -0.002572  

Tensor is right-handed
diagonalized D matrix : 
  -0.020438    -0.014206     0.034644  

  -0.175894     0.468029     0.866031  
   0.936074     0.351804    -0.000005  
  -0.304676     0.810668    -0.499990  


Direction X=1 Y=0 Z=2
D   =     0.051966  cm**-1
E/D =     0.059963

SPIN-SPIN-PART
                  0          1          2    
      0       0.022239   0.001026  -0.021486
      1       0.001026  -0.019667   0.001778
      2      -0.021486   0.001778  -0.002572
Exchange and Coulomb parts of SS (raw)
Coulomb
                  0          1          2    
      0      -0.004579   0.006388   0.006747
      1       0.006388   0.001368   0.011065
      2       0.006747   0.011065   0.003211
Exchange
                  0          1          2    
      0       0.026818  -0.005362  -0.028233
      1      -0.005362  -0.021034  -0.009287
      2      -0.028233  -0.009287  -0.005784
One-, two-, three- and four-center SS contributions (raw)
One-Center            (AA|AA):
                  0          1          2    
      0      -0.000379   0.000028   0.000388
      1       0.000028   0.000280   0.000020
      2       0.000388   0.000020   0.000099
Two-Center-Coulomb    (AA|BB):
                  0          1          2    
      0       0.021527  -0.000167  -0.019669
      1      -0.000167  -0.019794  -0.000764
      2      -0.019669  -0.000764  -0.001733
Two-Center-Exchange   (AB|BA):
                  0          1          2    
      0       0.000356  -0.000181  -0.000356
      1      -0.000181  -0.000299  -0.000325
      2      -0.000356  -0.000325  -0.000058
Two-Center-hybrid     (AA|AB):
                  0          1          2    
      0       0.002110  -0.001025  -0.002014
      1      -0.001025  -0.002073  -0.001835
      2      -0.002014  -0.001835  -0.000037
Three-Center-Coulomb  (AA|BC):
                  0          1          2    
      0      -0.001438   0.002573   0.000168
      1       0.002573   0.002359   0.004999
      2       0.000168   0.004999  -0.000921
Three-Center-Exchange (AB|AC):
                  0          1          2    
      0       0.000774  -0.000783  -0.000692
      1      -0.000783  -0.000720  -0.001293
      2      -0.000692  -0.001293  -0.000055
Four-Center           (AB|CD):
                  0          1          2    
      0      -0.000712   0.000582   0.000688
      1       0.000582   0.000580   0.000975
      2       0.000688   0.000975   0.000131

Individual contributions (in cm**-1)
                                   D         E
SPIN-SPIN                  :   0.05197    0.00312
  Exchange vs Coulomb
  Coulomb                  :  -0.01271    0.01057
  Exchange                 :   0.06468   -0.00746
  One through four center contributions:
  1-center                 :  -0.00089    0.00003
  2-center-Coulomb         :   0.04912    0.00208
  2-center-Exchange        :   0.00084   -0.00023
  2-center-Hybrid          :   0.00498   -0.00107
  3-center-Coulomb         :  -0.00218    0.00247
  3-center-Exchange        :   0.00175   -0.00089
  4-center                 :  -0.00165    0.00072


-----------------------------------------
ELECTRIC AND MAGNETIC HYPERFINE STRUCTURE
-----------------------------------------

 -----------------------------------------------------------
 Nucleus   0N : A:ISTP=   14 I=  1.0 P= 38.5677 MHz/au**3
                Q:ISTP=   14 I=  1.0 Q=  0.0204 barn     
 -----------------------------------------------------------
 Solving for nuclear perturbation:
Forming RHS of the CP-SCF equations         ... 
Calc. nucleus orbit integrals (SHARK)       ... done

------------------------------------------------------------------------------
                           ORCA CP-SCF CALCULATION
------------------------------------------------------------------------------

Input orbitals are from        ... quinoline_triplet_tilted.gbw
Input Perturbation             ... quinoline_triplet_tilted.pin.tmp
Wavefunction output            ... quinoline_triplet_tilted.pout.tmp
Perturbation mode              ... Imaginary perturbation
Solver                         ... POPLE
Max. number of iterations      ... 64
Convergence tolerance          ... 1.000e-04
Integral handling              ... Direct
DFT GridXC                     ... 1
COSX GridX                     ... 1
COSX IntAccX                   ... 3.067
COSX Algorithm                 ... Auto
Number of perturbations        ... 3
Number of operators            ... 2
Orbital ranges used for CP-SCF:
 Operator 0:  Orbitals   0... 34  to  35...476
 Operator 1:  Orbitals   0... 32  to  33...476
Variables per perturbation     ... 30122
DFT calculation                         ... on
XC functional terms                     ... off
Hybrid DFT                              ... on
   Exchange mixing (SCF)                ...  0.250
   Exchange mixing (CP-SCF)             ...  0.250
   GGA exch. scaling(SCF)               ...  0.750
   GGA exch. scaling (CP-SCF)           ...  0.750
   GGA corr. scaling (SCF)              ...  1.000
   GGA corr. scaling (CP-SCF)           ...  1.000

CP-SCF GRID
-----------

General Integration Accuracy     IntAcc      ... 3.467
Radial Grid Type                 RadialGrid  ... OptM3 with GC (2021)
Angular Grid (max. ang.)         AngularGrid ... 1 (Lebedev-50)
Angular grid pruning method      GridPruning ... 4 (adaptive)
Weight generation scheme         WeightScheme... Becke
Basis function cutoff            BFCut       ... 1.0000e-11
Integration weight cutoff        WCut        ... 1.0000e-14
Angular grids for H and He will be reduced by one unit
Partially contracted basis set               ... off
Rotationally invariant grid construction     ... off

Total number of grid points                  ...    12801
Total number of batches                      ...      208
Average number of points per batch           ...       61
Average number of grid points per atom       ...      753

CP-SCF GRIDX
------------

General Integration Accuracy     IntAcc      ... 3.067
Radial Grid Type                 RadialGrid  ... OptM3 with GC (2021)
Angular Grid (max. ang.)         AngularGrid ... 1 (Lebedev-50)
Angular grid pruning method      GridPruning ... 4 (adaptive)
Weight generation scheme         WeightScheme... Becke
Basis function cutoff            BFCut       ... 1.0000e-11
Integration weight cutoff        WCut        ... 1.0000e-14
Angular grids for H and He will be reduced by one unit
Partially contracted basis set               ... on
Rotationally invariant grid construction     ... off

Total number of grid points                  ...     5776
Total number of batches                      ...       99
Average number of points per batch           ...       58
Average number of grid points per atom       ...      340

Memory available               ... 586.2 MB
Memory needed per perturbation ...  39.0 MB
Perturbations treated per batch... 3
Number of batches              ... 1
     CP-SCF ITERATION   0:   4.0459e+00 (  10.3 sec   0/  3 done)
     CP-SCF ITERATION   1:   7.0801e-01 (  10.1 sec   0/  3 done)
     CP-SCF ITERATION   2:   8.2794e-02 (  10.2 sec   0/  3 done)
     CP-SCF ITERATION   3:   7.6672e-03 (  10.1 sec   0/  3 done)
     CP-SCF ITERATION   4:   8.2227e-04 (  10.1 sec   0/  3 done)
     CP-SCF ITERATION   5:   7.9920e-05 (  10.2 sec   3/  3 done)
                    *** THE CP-SCF HAS CONVERGED ***

Forming final perturbed densities           ... done
Transforming perturbed density to AO basis  ... done

 Raw HFC matrix (all values in MHz): 
 -----------------------------------
                16.3968              -0.0928             -10.3231
                -0.0952              -1.6320              -0.1650
               -10.3231              -0.1609               4.4761

 A(FC)           6.4011               6.4011               6.4011
 A(SD)          -7.8198              -8.1371              15.9569
 A(ORB+DIA)      0.0630              -0.0241              -0.0013    A(PC) =   0.0125
 A(ORB)          0.0629              -0.0242              -0.0013    A(PC) =   0.0125
 A(DIA)          0.0001               0.0001              -0.0000    A(PC) =   0.0001
             ----------           ----------           ----------
 A(Tot)         -1.3557              -1.7601              22.3567    A(iso)=    6.4137
 Orientation: 
  X          -0.4129952            0.2818239            0.8660313
  Y           0.5636456            0.8260167           -0.0000096
  Z          -0.7153591            0.4881308           -0.4999898

Notes:  (1) The A matrix conforms to the "SAI" spin Hamiltonian convention.
        (2) Tensor is right-handed.

 Raw EFG matrix (all values in a.u.**-3):
 -----------------------------------
             0.4082      -0.3421      -0.3266
            -0.3421      -0.4391      -0.5926
            -0.3266      -0.5926       0.0310

 V(El)      -0.5988       1.6054      -1.0066
 V(Nuc)      0.9990      -1.0087       0.0097
         ----------   ----------   ----------
 V(Tot)      0.4002       0.5967      -0.9969 
 Orientation: 
  X      -0.3875414    0.8660275   -0.3159241
  Y       0.6318643    0.0000085   -0.7750790
  Z      -0.6712371   -0.4999964   -0.5472152

Note: Tensor is right-handed


 Quadrupole tensor eigenvalues (in MHz;Q= 0.0204 I=  1.0)
  e**2qQ            =    -4.787920 MHz 
  e**2qQ/(4I*(2I-1))=    -1.196980 MHz 
  eta               =     0.197165
  NOTE: the diagonal representation of the SH term I*Q*I = e**2qQ/(4I(2I-1))*[-(1-eta),-(1+eta),2]

 RHO(0)=    200.303992385 a.u.**-3


--------------------------------------------------------------------------------
----------------------------------------------------------------------------
                           ORCA EULER ANGLE PROGRAM
----------------------------------------------------------------------------

ZFS < 0.3 cm**-1               -->  using g-tensor as reference tensor

Reference tensor               ...  g

g-tensor ordering              ...  |g_min> --> |gx>
                                    |g_mid> --> |gy>
                                    |g_max> --> |gz>

A- and EFG-tensor ordering     ...  the axes |Ax>, |Qx>, |Ay>, etc. are assigned
                                    such that the Euler rotation is minimal. You
                                    can find the respective eigenvalues as Ax,
                                    EFGx, Ay, etc. in the tables below.
                                    The relation of |Ax>, |Ay>,  etc. to Amin, Amid, etc.
                                    (as printed in the ORCA EPR/NMR CALCULATION Output)
                                    is obtained in the detailed printout.

Euler rotation around          ...  z - y - z
   First rotation              -->  by alpha around z
   Second rotation             -->  by beta around y'
   Third rotation              -->  by gamma around z''
   Positive / Negative angle   -->  clockwise / counterclockwise rotation

Plot EFG-tensors                    (-)
Plot HFC-tensors                    (-)
Detailed Printout                   (-)

-------------------------------------------------------------------------
          Euler rotation of hyperfine tensor to g-tensor
-------------------------------------------------------------------------

-------------------------------------------------------------------
 Atom  |   Alpha    Beta    Gamma   |   Ax       Ay       Az 
       |          [degrees]         |           [MHz]         
-------------------------------------------------------------------
  0N       77.9      7.4    -70.2      22.36    -1.76    -1.36
-------------------------------------------------------------------


-------------------------------------------------------------------------------
    Euler rotation of Electric Field Gradient (EFG) tensor to g-tensor
-------------------------------------------------------------------------------

-------------------------------------------------------------------
 Atom  |   Alpha    Beta    Gamma  |   EFGx     EFGy     EFGz
       |          [degrees]        |         [a.u.**-3]       
-------------------------------------------------------------------
  0N       56.5      2.8    -48.7      0.60    -1.00     0.40
-------------------------------------------------------------------


Maximum memory used throughout the entire EPRNMR-calculation: 491.0 MB

Timings for individual modules:

Sum of individual times         ...     1365.830 sec (=  22.764 min)
GTO integral calculation        ...        0.533 sec (=   0.009 min)   0.0 %
Spin-Orbit-Coupling Matrices    ...       28.449 sec (=   0.474 min)   2.1 %
SCF iterations                  ...      705.142 sec (=  11.752 min)  51.6 %
EPR/NMR calculation             ...      631.707 sec (=  10.528 min)  46.3 %
                             ****ORCA TERMINATED NORMALLY****
TOTAL RUN TIME: 0 days 0 hours 22 minutes 46 seconds 275 msec
