
                                 *****************
                                 * O   R   C   A *
                                 *****************

                                            #,                                       
                                            ###                                      
                                            ####                                     
                                            #####                                    
                                            ######                                   
                                           ########,                                 
                                     ,,################,,,,,                         
                               ,,#################################,,                 
                          ,,##########################################,,             
                       ,#########################################, ''#####,          
                    ,#############################################,,   '####,        
                  ,##################################################,,,,####,       
                ,###########''''           ''''###############################       
              ,#####''   ,,,,##########,,,,          '''####'''          '####       
            ,##' ,,,,###########################,,,                        '##       
           ' ,,###''''                  '''############,,,                           
         ,,##''                                '''############,,,,        ,,,,,,###''
      ,#''                                            '''#######################'''  
     '                                                          ''''####''''         
             ,#######,   #######,   ,#######,      ##                                
            ,#'     '#,  ##    ##  ,#'     '#,    #''#        ######   ,####,        
            ##       ##  ##   ,#'  ##            #'  '#       #        #'  '#        
            ##       ##  #######   ##           ,######,      #####,   #    #        
            '#,     ,#'  ##    ##  '#,     ,#' ,#      #,         ##   #,  ,#        
             '#######'   ##     ##  '#######'  #'      '#     #####' # '####'        



                  #######################################################
                  #                        -***-                        #
                  #          Department of theory and spectroscopy      #
                  #    Directorship and core code : Frank Neese         #
                  #        Max Planck Institute fuer Kohlenforschung    #
                  #                Kaiser Wilhelm Platz 1               #
                  #                 D-45470 Muelheim/Ruhr               #
                  #                      Germany                        #
                  #                                                     #
                  #                  All rights reserved                #
                  #                        -***-                        #
                  #######################################################


                         Program Version 5.0.4 -  RELEASE  -


 With contributions from (in alphabetic order):
   Daniel Aravena         : Magnetic Suceptibility
   Michael Atanasov       : Ab Initio Ligand Field Theory (pilot matlab implementation)
   Alexander A. Auer      : GIAO ZORA, VPT2 properties, NMR spectrum
   Ute Becker             : Parallelization
   Giovanni Bistoni       : ED, misc. LED, open-shell LED, HFLD
   Martin Brehm           : Molecular dynamics
   Dmytro Bykov           : SCF Hessian
   Vijay G. Chilkuri      : MRCI spin determinant printing, contributions to CSF-ICE
   Dipayan Datta          : RHF DLPNO-CCSD density
   Achintya Kumar Dutta   : EOM-CC, STEOM-CC
   Dmitry Ganyushin       : Spin-Orbit,Spin-Spin,Magnetic field MRCI
   Miquel Garcia          : C-PCM and meta-GGA Hessian, CC/C-PCM, Gaussian charge scheme
   Yang Guo               : DLPNO-NEVPT2, F12-NEVPT2, CIM, IAO-localization
   Andreas Hansen         : Spin unrestricted coupled pair/coupled cluster methods
   Benjamin Helmich-Paris : MC-RPA, TRAH-SCF, COSX integrals
   Lee Huntington         : MR-EOM, pCC
   Robert Izsak           : Overlap fitted RIJCOSX, COSX-SCS-MP3, EOM
   Marcus Kettner         : VPT2
   Christian Kollmar      : KDIIS, OOCD, Brueckner-CCSD(T), CCSD density, CASPT2, CASPT2-K
   Simone Kossmann        : Meta GGA functionals, TD-DFT gradient, OOMP2, MP2 Hessian
   Martin Krupicka        : Initial AUTO-CI
   Lucas Lang             : DCDCAS
   Marvin Lechner         : AUTO-CI (C++ implementation), FIC-MRCC
   Dagmar Lenk            : GEPOL surface, SMD
   Dimitrios Liakos       : Extrapolation schemes; Compound Job, initial MDCI parallelization
   Dimitrios Manganas     : Further ROCIS development; embedding schemes
   Dimitrios Pantazis     : SARC Basis sets
   Anastasios Papadopoulos: AUTO-CI, single reference methods and gradients
   Taras Petrenko         : DFT Hessian,TD-DFT gradient, ASA, ECA, R-Raman, ABS, FL, XAS/XES, NRVS
   Peter Pinski           : DLPNO-MP2, DLPNO-MP2 Gradient
   Christoph Reimann      : Effective Core Potentials
   Marius Retegan         : Local ZFS, SOC
   Christoph Riplinger    : Optimizer, TS searches, QM/MM, DLPNO-CCSD(T), (RO)-DLPNO pert. Triples
   Tobias Risthaus        : Range-separated hybrids, TD-DFT gradient, RPA, STAB
   Michael Roemelt        : Original ROCIS implementation
   Masaaki Saitow         : Open-shell DLPNO-CCSD energy and density
   Barbara Sandhoefer     : DKH picture change effects
   Avijit Sen             : IP-ROCIS
   Kantharuban Sivalingam : CASSCF convergence, NEVPT2, FIC-MRCI
   Bernardo de Souza      : ESD, SOC TD-DFT
   Georgi Stoychev        : AutoAux, RI-MP2 NMR, DLPNO-MP2 response
   Willem Van den Heuvel  : Paramagnetic NMR
   Boris Wezisla          : Elementary symmetry handling
   Frank Wennmohs         : Technical directorship


 We gratefully acknowledge several colleagues who have allowed us to
 interface, adapt or use parts of their codes:
   Stefan Grimme, W. Hujo, H. Kruse, P. Pracht,  : VdW corrections, initial TS optimization,
                  C. Bannwarth, S. Ehlert          DFT functionals, gCP, sTDA/sTD-DF
   Ed Valeev, F. Pavosevic, A. Kumar             : LibInt (2-el integral package), F12 methods
   Garnet Chan, S. Sharma, J. Yang, R. Olivares  : DMRG
   Ulf Ekstrom                                   : XCFun DFT Library
   Mihaly Kallay                                 : mrcc  (arbitrary order and MRCC methods)
   Jiri Pittner, Ondrej Demel                    : Mk-CCSD
   Frank Weinhold                                : gennbo (NPA and NBO analysis)
   Christopher J. Cramer and Donald G. Truhlar   : smd solvation model
   Lars Goerigk                                  : TD-DFT with DH, B97 family of functionals
   V. Asgeirsson, H. Jonsson                     : NEB implementation
   FAccTs GmbH                                   : IRC, NEB, NEB-TS, DLPNO-Multilevel, CI-OPT
                                                   MM, QMMM, 2- and 3-layer-ONIOM, Crystal-QMMM,
                                                   LR-CPCM, SF, NACMEs, symmetry and pop. for TD-DFT,
                                                   nearIR, NL-DFT gradient (VV10), updates on ESD,
                                                   ML-optimized integration grids
   S Lehtola, MJT Oliveira, MAL Marques          : LibXC Library
   Liviu Ungur et al                             : ANISO software


 Your calculation uses the libint2 library for the computation of 2-el integrals
 For citations please refer to: http://libint.valeyev.net

 Your ORCA version has been built with support for libXC version: 5.1.0
 For citations please refer to: https://tddft.org/programs/libxc/

 This ORCA versions uses:
   CBLAS   interface :  Fast vector & matrix operations
   LAPACKE interface :  Fast linear algebra routines
   SCALAPACK package :  Parallel linear algebra routines
   Shared memory     :  Shared parallel matrices
   BLAS/LAPACK       :  OpenBLAS 0.3.15  USE64BITINT DYNAMIC_ARCH NO_AFFINITY SkylakeX SINGLE_THREADED
        Core in use  :  SkylakeX
   Copyright (c) 2011-2014, The OpenBLAS Project


Your calculation utilizes the atom-pairwise dispersion correction
with the Becke-Johnson damping scheme (D3BJ)
Cite in your paper:
S.Grimme, S.Ehrlich, L.Goerigk, J Comput Chem, (2011), 32, 1456–1465 
S.Grimme, J.Antony, S.Ehrlich and H.Krieg, J.Chem.Phys., 132, (2010), 154104 
   

================================================================================

----- Orbital basis set information -----
Your calculation utilizes the basis: EPR-III
   V. Barone, in Recent Advances in Density Functional Methods, Part 1 (ed. D. P. Chong), World Scientific, Singapore, 1995, p. 287.
   N. Rega, M. Cossi and V. Barone, J. Chem. Phys. 105, 11060 (1996).

----- AuxJ basis set information -----
Your calculation utilizes the auxiliary basis: def2/J
   F. Weigend, Phys. Chem. Chem. Phys. 8, 1057 (2006).

================================================================================
                                        WARNINGS
                       Please study these warnings very carefully!
================================================================================


INFO   : the flag for use of the SHARK integral package has been found!

================================================================================
                                       INPUT FILE
================================================================================
NAME = quinoline_triplet.inp
|  1> ! UKS PBE0 EPR-III D3BJ TightSCF
|  2> *xyz 0 3
|  3> N        0.00000        0.00000        0.00000
|  4> C        1.19337       -0.69557        0.00000
|  5> C        1.27722       -2.06478        0.00000
|  6> C        0.07192       -2.83517        0.00000
|  7> C       -1.16486       -2.16483        0.00000
|  8> C       -2.42070       -2.81923        0.00000
|  9> C       -3.66234       -2.07787        0.00000
| 10> C       -3.64198       -0.71240        0.00000
| 11> C       -2.38004       -0.01749        0.00000
| 12> C       -1.14022       -0.71981        0.00000
| 13> H        2.09100       -0.07416        0.00000
| 14> H        2.24891       -2.55912        0.00000
| 15> H        0.10496       -3.92535        0.00000
| 16> H       -2.44822       -3.91055        0.00000
| 17> H       -4.60560       -2.62436        0.00000
| 18> H       -4.56809       -0.13769        0.00000
| 19> H       -2.33797        1.07166        0.00000
| 20> *
| 21> 
| 22> %eprnmr gTensor 1
| 23>         Dtensor ss
| 24>         DSS uno
| 25>         Nuclei = all N {aiso, adip, aorb, fgrad, rho}
| 26> end
| 27> 
| 28>                          ****END OF INPUT****
================================================================================

                       ****************************
                       * Single Point Calculation *
                       ****************************

---------------------------------
CARTESIAN COORDINATES (ANGSTROEM)
---------------------------------
  N      0.000000    0.000000    0.000000
  C      1.193370   -0.695570    0.000000
  C      1.277220   -2.064780    0.000000
  C      0.071920   -2.835170    0.000000
  C     -1.164860   -2.164830    0.000000
  C     -2.420700   -2.819230    0.000000
  C     -3.662340   -2.077870    0.000000
  C     -3.641980   -0.712400    0.000000
  C     -2.380040   -0.017490    0.000000
  C     -1.140220   -0.719810    0.000000
  H      2.091000   -0.074160    0.000000
  H      2.248910   -2.559120    0.000000
  H      0.104960   -3.925350    0.000000
  H     -2.448220   -3.910550    0.000000
  H     -4.605600   -2.624360    0.000000
  H     -4.568090   -0.137690    0.000000
  H     -2.337970    1.071660    0.000000

----------------------------
CARTESIAN COORDINATES (A.U.)
----------------------------
  NO LB      ZA    FRAG     MASS         X           Y           Z
   0 N     7.0000    0    14.007    0.000000    0.000000    0.000000
   1 C     6.0000    0    12.011    2.255142   -1.314437    0.000000
   2 C     6.0000    0    12.011    2.413596   -3.901869    0.000000
   3 C     6.0000    0    12.011    0.135909   -5.357695    0.000000
   4 C     6.0000    0    12.011   -2.201266   -4.090936    0.000000
   5 C     6.0000    0    12.011   -4.574460   -5.327573    0.000000
   6 C     6.0000    0    12.011   -6.920820   -3.926605    0.000000
   7 C     6.0000    0    12.011   -6.882345   -1.346241    0.000000
   8 C     6.0000    0    12.011   -4.497624   -0.033051    0.000000
   9 C     6.0000    0    12.011   -2.154704   -1.360244    0.000000
  10 H     1.0000    0     1.008    3.951417   -0.140142    0.000000
  11 H     1.0000    0     1.008    4.249824   -4.836036    0.000000
  12 H     1.0000    0     1.008    0.198346   -7.417836    0.000000
  13 H     1.0000    0     1.008   -4.626465   -7.389869    0.000000
  14 H     1.0000    0     1.008   -8.703323   -4.959322    0.000000
  15 H     1.0000    0     1.008   -8.632439   -0.260196    0.000000
  16 H     1.0000    0     1.008   -4.418123    2.025144    0.000000

--------------------------------
INTERNAL COORDINATES (ANGSTROEM)
--------------------------------
 N      0   0   0     0.000000000000     0.00000000     0.00000000
 C      1   0   0     1.381285481644     0.00000000     0.00000000
 C      2   1   0     1.371775071431   123.74068249     0.00000000
 C      3   2   1     1.430471545365   119.08103998     0.00000000
 C      4   3   2     1.406762412065   118.95668019     0.00000000
 C      5   4   3     1.416112094998   124.01875361   180.00000000
 C      6   5   4     1.446127428410   121.63599928   180.00000000
 C      7   6   5     1.365621781644   119.98638257     0.00000000
 C      8   7   6     1.440622251564   119.69442311     0.00000000
 C      1   2   3     1.348416880827   117.49989036     0.00000000
 H      2   1   3     1.091737150142   115.06969198   180.00000085
 H      3   2   1     1.090208003869   120.46877441   180.00000000
 H      4   3   2     1.090680555433   120.84951210   180.00000000
 H      6   5   4     1.091666933089   118.96789721     0.00000000
 H      7   6   5     1.090133362346   119.07294739   180.00000121
 H      8   7   6     1.089940969135   120.96797343   180.00000000
 H      9   8   7     1.089962204574   121.05220398   180.00000085

---------------------------
INTERNAL COORDINATES (A.U.)
---------------------------
 N      0   0   0     0.000000000000     0.00000000     0.00000000
 C      1   0   0     2.610251273068     0.00000000     0.00000000
 C      2   1   0     2.592279202345   123.74068249     0.00000000
 C      3   2   1     2.703199463108   119.08103998     0.00000000
 C      4   3   2     2.658395694298   118.95668019     0.00000000
 C      5   4   3     2.676064034480   124.01875361   180.00000000
 C      6   5   4     2.732784794447   121.63599928   180.00000000
 C      7   6   5     2.580651169824   119.98638257     0.00000000
 C      8   7   6     2.722381517888   119.69442311     0.00000000
 C      1   2   3     2.548138619120   117.49989036     0.00000000
 H      2   1   3     2.063084223996   115.06969198   180.00000085
 H      3   2   1     2.060194556321   120.46877441   180.00000000
 H      4   3   2     2.061087549362   120.84951210   180.00000000
 H      6   5   4     2.062951532996   118.96789721     0.00000000
 H      7   6   5     2.060053504285   119.07294739   180.00000121
 H      8   7   6     2.059689933807   120.96797343   180.00000000
 H      9   8   7     2.059730062970   121.05220398   180.00000085

---------------------
BASIS SET INFORMATION
---------------------
There are 3 groups of distinct atoms

 Group   1 Type N   : 12s8p2d1f contracted to 8s5p2d1f pattern {51111111/41111/11/1}
 Group   2 Type C   : 12s8p2d1f contracted to 8s5p2d1f pattern {51111111/41111/11/1}
 Group   3 Type H   : 7s2p contracted to 5s2p pattern {31111/11}

Atom   0N    basis set group =>   1
Atom   1C    basis set group =>   2
Atom   2C    basis set group =>   2
Atom   3C    basis set group =>   2
Atom   4C    basis set group =>   2
Atom   5C    basis set group =>   2
Atom   6C    basis set group =>   2
Atom   7C    basis set group =>   2
Atom   8C    basis set group =>   2
Atom   9C    basis set group =>   2
Atom  10H    basis set group =>   3
Atom  11H    basis set group =>   3
Atom  12H    basis set group =>   3
Atom  13H    basis set group =>   3
Atom  14H    basis set group =>   3
Atom  15H    basis set group =>   3
Atom  16H    basis set group =>   3
---------------------------------
AUXILIARY/J BASIS SET INFORMATION
---------------------------------
There are 3 groups of distinct atoms

 Group   1 Type N   : 12s5p4d2f1g contracted to 6s4p3d1f1g pattern {711111/2111/211/2/1}
 Group   2 Type C   : 12s5p4d2f1g contracted to 6s4p3d1f1g pattern {711111/2111/211/2/1}
 Group   3 Type H   : 5s2p1d contracted to 3s1p1d pattern {311/2/1}

Atom   0N    basis set group =>   1
Atom   1C    basis set group =>   2
Atom   2C    basis set group =>   2
Atom   3C    basis set group =>   2
Atom   4C    basis set group =>   2
Atom   5C    basis set group =>   2
Atom   6C    basis set group =>   2
Atom   7C    basis set group =>   2
Atom   8C    basis set group =>   2
Atom   9C    basis set group =>   2
Atom  10H    basis set group =>   3
Atom  11H    basis set group =>   3
Atom  12H    basis set group =>   3
Atom  13H    basis set group =>   3
Atom  14H    basis set group =>   3
Atom  15H    basis set group =>   3
Atom  16H    basis set group =>   3
------------------------------------------------------------------------------
                           ORCA GTO INTEGRAL CALCULATION
                           -- RI-GTO INTEGRALS CHOSEN --
------------------------------------------------------------------------------
------------------------------------------------------------------------------
                   ___                                                        
                  /   \      - P O W E R E D   B Y -                         
                 /     \                                                     
                 |  |  |   _    _      __       _____    __    __             
                 |  |  |  | |  | |    /  \     |  _  \  |  |  /  |          
                  \  \/   | |  | |   /    \    | | | |  |  | /  /          
                 / \  \   | |__| |  /  /\  \   | |_| |  |  |/  /          
                |  |  |   |  __  | /  /__\  \  |    /   |      \           
                |  |  |   | |  | | |   __   |  |    \   |  |\   \          
                \     /   | |  | | |  |  |  |  | |\  \  |  | \   \       
                 \___/    |_|  |_| |__|  |__|  |_| \__\ |__|  \__/        
                                                                              
                      - O R C A' S   B I G   F R I E N D -                    
                                      &                                       
                       - I N T E G R A L  F E E D E R -                       
                                                                              
 v1 FN, 2020, v2 2021                                                         
------------------------------------------------------------------------------


Reading SHARK input file quinoline_triplet.SHARKINP.tmp ... ok
----------------------
SHARK INTEGRAL PACKAGE
----------------------

Number of atoms                             ...     17
Number of basis functions                   ...    477
Number of shells                            ...    209
Maximum angular momentum                    ...      3
Integral batch strategy                     ... SHARK/LIBINT Hybrid
RI-J (if used) integral strategy            ... SPLIT-RIJ (Revised 2003 algorithm where possible)
Printlevel                                  ...      1
Contraction scheme used                     ... SEGMENTED contraction
Coulomb Range Separation                    ... NOT USED
Exchange Range Separation                   ... NOT USED
Finite Nucleus Model                        ... NOT USED
Auxiliary Coulomb fitting basis             ... AVAILABLE
   # of basis functions in Aux-J            ...    567
   # of shells in Aux-J                     ...    185
   Maximum angular momentum in Aux-J        ...      4
Auxiliary J/K fitting basis                 ... NOT available
Auxiliary Correlation fitting basis         ... NOT available
Auxiliary 'external' fitting basis          ... NOT available
Integral threshold                          ...     2.500000e-11
Primitive cut-off                           ...     2.500000e-12
Primitive pair pre-selection threshold      ...     2.500000e-12

Calculating pre-screening integrals         ... done (  0.1 sec) Dimension = 209
Organizing shell pair data                  ... done (  0.1 sec)
Shell pair information
Total number of shell pairs                 ...     21945
Shell pairs after pre-screening             ...     18513
Total number of primitive shell pairs       ...     43252
Primitive shell pairs kept                  ...     29975
          la=0 lb=0:   4993 shell pairs
          la=1 lb=0:   6371 shell pairs
          la=1 lb=1:   1939 shell pairs
          la=2 lb=0:   2014 shell pairs
          la=2 lb=1:   1198 shell pairs
          la=2 lb=2:    202 shell pairs
          la=3 lb=0:    950 shell pairs
          la=3 lb=1:    601 shell pairs
          la=3 lb=2:    192 shell pairs
          la=3 lb=3:     53 shell pairs

Calculating one electron integrals          ... done (  0.1 sec)
Calculating RI/J V-Matrix + Cholesky decomp.... done (  0.0 sec)
Calculating Nuclear repulsion               ... done (  0.0 sec) ENN=    457.691015305699 Eh

SHARK setup successfully completed in   0.6 seconds

Maximum memory used throughout the entire GTOINT-calculation: 179.7 MB
-------------------------------------------------------------------------------
                                 ORCA SCF
-------------------------------------------------------------------------------

------------
SCF SETTINGS
------------
Hamiltonian:
 Density Functional     Method          .... DFT(GTOs)
 Exchange Functional    Exchange        .... PBE
   PBE kappa parameter   XKappa         ....  0.804000
   PBE mue parameter    XMuePBE         ....  0.219520
 Correlation Functional Correlation     .... PBE
   PBE beta parameter  CBetaPBE         ....  0.066725
 LDA part of GGA corr.  LDAOpt          .... PW91-LDA
 Gradients option       PostSCFGGA      .... off
 Hybrid DFT is turned on
   Fraction HF Exchange ScalHFX         ....  0.250000
   Scaling of DF-GGA-X  ScalDFX         ....  0.750000
   Scaling of DF-GGA-C  ScalDFC         ....  1.000000
   Scaling of DF-LDA-C  ScalLDAC        ....  1.000000
   Perturbative correction              ....  0.000000
   Density functional embedding theory  .... OFF
   NL short-range parameter             ....  6.900000
 RI-approximation to the Coulomb term is turned on
   Number of AuxJ basis functions       .... 567
   RIJ-COSX (HFX calculated with COS-X)).... on


General Settings:
 Integral files         IntName         .... quinoline_triplet
 Hartree-Fock type      HFTyp           .... UHF
 Total Charge           Charge          ....    0
 Multiplicity           Mult            ....    3
 Number of Electrons    NEL             ....   68
 Basis Dimension        Dim             ....  477
 Nuclear Repulsion      ENuc            ....    457.6910153057 Eh

Convergence Acceleration:
 DIIS                   CNVDIIS         .... on
   Start iteration      DIISMaxIt       ....    12
   Startup error        DIISStart       ....  0.200000
   # of expansion vecs  DIISMaxEq       ....     5
   Bias factor          DIISBfac        ....   1.050
   Max. coefficient     DIISMaxC        ....  10.000
 Trust-Rad. Augm. Hess. CNVTRAH         .... auto
   Auto Start mean grad. ratio tolernc. ....  1.125000
   Auto Start start iteration           ....    20
   Auto Start num. interpolation iter.  ....    10
   Max. Number of Micro iterations      ....    16
   Max. Number of Macro iterations      .... Maxiter - #DIIS iter
   Number of Davidson start vectors     ....     2
   Converg. threshold I  (grad. norm)   ....   1.000e-05
   Converg. threshold II (energy diff.) ....   1.000e-08
   Grad. Scal. Fac. for Micro threshold ....   0.100
   Minimum threshold for Micro iter.    ....   0.010
   NR start threshold (gradient norm)   ....   0.001
   Initial trust radius                 ....   0.400
   Minimum AH scaling param. (alpha)    ....   1.000
   Maximum AH scaling param. (alpha)    .... 1000.000
   Orbital update algorithm             .... Taylor
   White noise on init. David. guess    .... on
   Maximum white noise                  ....   0.010
   Quad. conv. algorithm                .... NR
 SOSCF                  CNVSOSCF        .... off
 Level Shifting         CNVShift        .... on
   Level shift para.    LevelShift      ....    0.2500
   Turn off err/grad.   ShiftErr        ....    0.0010
 Zerner damping         CNVZerner       .... off
 Static damping         CNVDamp         .... on
   Fraction old density DampFac         ....    0.7000
   Max. Damping (<1)    DampMax         ....    0.9800
   Min. Damping (>=0)   DampMin         ....    0.0000
   Turn off err/grad.   DampErr         ....    0.1000
 Fernandez-Rico         CNVRico         .... off

SCF Procedure:
 Maximum # iterations   MaxIter         ....   125
 SCF integral mode      SCFMode         .... Direct
   Integral package                     .... SHARK and LIBINT hybrid scheme
 Reset frequency        DirectResetFreq ....    20
 Integral Threshold     Thresh          ....  2.500e-11 Eh
 Primitive CutOff       TCut            ....  2.500e-12 Eh

Convergence Tolerance:
 Convergence Check Mode ConvCheckMode   .... Total+1el-Energy
 Convergence forced     ConvForced      .... 0
 Energy Change          TolE            ....  1.000e-08 Eh
 1-El. energy change                    ....  1.000e-05 Eh
 DIIS Error             TolErr          ....  5.000e-07


Diagonalization of the overlap matrix:
Smallest eigenvalue                        ... 1.025e-07
Time for diagonalization                   ...    0.033 sec
Threshold for overlap eigenvalues          ... 1.000e-08
Number of eigenvalues below threshold      ... 0
Time for construction of square roots      ...    0.014 sec
Total time needed                          ...    0.048 sec

Time for model grid setup =    0.383 sec

------------------------------
INITIAL GUESS: MODEL POTENTIAL
------------------------------
Loading Hartree-Fock densities                     ... done
Calculating cut-offs                               ... done
Initializing the effective Hamiltonian             ... done
Setting up the integral package (SHARK)            ... done
Starting the Coulomb interaction                   ... done (   0.9 sec)
Reading the grid                                   ... done
Mapping shells                                     ... done
Starting the XC term evaluation                    ... done (   1.1 sec)
  promolecular density results
     # of electrons  =     67.993803509
     EX              =    -54.557382525
     EC              =     -2.251715747
     EX+EC           =    -56.809098271
Transforming the Hamiltonian                       ... done (   0.0 sec)
Diagonalizing the Hamiltonian                      ... done (   0.0 sec)
Back transforming the eigenvectors                 ... done (   0.0 sec)
Now organizing SCF variables                       ... done
                      ------------------
                      INITIAL GUESS DONE (   2.4 sec)
                      ------------------
-------------------
DFT GRID GENERATION
-------------------

General Integration Accuracy     IntAcc      ... 4.388
Radial Grid Type                 RadialGrid  ... OptM3 with GC (2021)
Angular Grid (max. ang.)         AngularGrid ... 4 (Lebedev-302)
Angular grid pruning method      GridPruning ... 4 (adaptive)
Weight generation scheme         WeightScheme... Becke
Basis function cutoff            BFCut       ... 1.0000e-11
Integration weight cutoff        WCut        ... 1.0000e-14
Angular grids for H and He will be reduced by one unit
Partially contracted basis set               ... off
Rotationally invariant grid construction     ... off

Total number of grid points                  ...    86475
Total number of batches                      ...     1359
Average number of points per batch           ...       63
Average number of grid points per atom       ...     5087
Time for grid setup =    1.164 sec

--------------------
COSX GRID GENERATION
--------------------

GRIDX 1
-------
General Integration Accuracy     IntAcc      ... 3.816
Radial Grid Type                 RadialGrid  ... OptM3 with GC (2021)
Angular Grid (max. ang.)         AngularGrid ... 1 (Lebedev-50)
Angular grid pruning method      GridPruning ... 4 (adaptive)
Weight generation scheme         WeightScheme... Becke
Basis function cutoff            BFCut       ... 1.0000e-11
Integration weight cutoff        WCut        ... 1.0000e-14
Angular grids for H and He will be reduced by one unit
Partially contracted basis set               ... on
Rotationally invariant grid construction     ... off

Total number of grid points                  ...    10865
Total number of batches                      ...      180
Average number of points per batch           ...       60
Average number of grid points per atom       ...      639
UseSFitting                                  ... on

GRIDX 2
-------
General Integration Accuracy     IntAcc      ... 4.020
Radial Grid Type                 RadialGrid  ... OptM3 with GC (2021)
Angular Grid (max. ang.)         AngularGrid ... 2 (Lebedev-110)
Angular grid pruning method      GridPruning ... 4 (adaptive)
Weight generation scheme         WeightScheme... Becke
Basis function cutoff            BFCut       ... 1.0000e-11
Integration weight cutoff        WCut        ... 1.0000e-14
Angular grids for H and He will be reduced by one unit
Partially contracted basis set               ... on
Rotationally invariant grid construction     ... off

Total number of grid points                  ...    26754
Total number of batches                      ...      429
Average number of points per batch           ...       62
Average number of grid points per atom       ...     1574
UseSFitting                                  ... on

GRIDX 3
-------
General Integration Accuracy     IntAcc      ... 4.338
Radial Grid Type                 RadialGrid  ... OptM3 with GC (2021)
Angular Grid (max. ang.)         AngularGrid ... 3 (Lebedev-194)
Angular grid pruning method      GridPruning ... 4 (adaptive)
Weight generation scheme         WeightScheme... Becke
Basis function cutoff            BFCut       ... 1.0000e-11
Integration weight cutoff        WCut        ... 1.0000e-14
Angular grids for H and He will be reduced by one unit
Partially contracted basis set               ... on
Rotationally invariant grid construction     ... off

Total number of grid points                  ...    59362
Total number of batches                      ...      936
Average number of points per batch           ...       63
Average number of grid points per atom       ...     3492
UseSFitting                                  ... on

Time for X-Grid setup             =    2.305 sec

--------------
SCF ITERATIONS
--------------
ITER       Energy         Delta-E        Max-DP      RMS-DP      [F,P]     Damp
               ***  Starting incremental Fock matrix formation  ***
  0   -401.3117657429   0.000000000000 0.26646523  0.00120347  0.0969348 0.7000
  1   -401.3945150540  -0.082749311076 0.20064915  0.00088924  0.0476252 0.7000
                               ***Turning on DIIS***
  2   -401.4327650378  -0.038249983835 0.30907516  0.00136995  0.0199248 0.0000
  3   -401.4907350390  -0.057970001231 0.15819558  0.00099478  0.0246340 0.0000
  4   -401.5041890085  -0.013453969469 0.03110762  0.00023323  0.0057673 0.0000
  5   -401.5050164136  -0.000827405036 0.02271797  0.00011725  0.0036725 0.0000
  6   -401.5052834730  -0.000267059476 0.02421178  0.00009436  0.0019492 0.0000
  7   -401.5053953312  -0.000111858218 0.07510538  0.00036028  0.0011033 0.0000
  8   -401.5054426080  -0.000047276783 0.03098936  0.00011157  0.0009684 0.0000
               *** Restarting incremental Fock matrix formation ***
                                   *** Resetting DIIS ***
  9   -401.5054032126   0.000039395404 0.04927481  0.00019204  0.0002637 0.0000
 10   -401.5054092539  -0.000006041233 0.00931666  0.00003220  0.0003265 0.0000
 11   -401.5054122808  -0.000003026943 0.02299809  0.00011992  0.0001459 0.0000
 12   -401.5054156251  -0.000003344301 0.06980673  0.00031314  0.0001410 0.0000
 13   -401.5054178012  -0.000002176139 0.04714002  0.00021932  0.0001003 0.0000
 14   -401.5054184028  -0.000000601531 0.03503307  0.00012802  0.0000858 0.0000
 15   -401.5054185174  -0.000000114662 0.09306515  0.00034661  0.0000389 0.0000
 16   -401.5054185572  -0.000000039749 0.09406941  0.00035451  0.0000238 0.0000
 17   -401.5054185761  -0.000000018948 0.03208726  0.00016683  0.0000079 0.0000
                 **** Energy Check signals convergence ****

               *****************************************************
               *                     SUCCESS                       *
               *           SCF CONVERGED AFTER  18 CYCLES          *
               *****************************************************

Old exchange energy                            =    -13.915202166 Eh
New exchange energy                            =    -13.915193134 Eh
Exchange energy change after final integration =      0.000009031 Eh
Total energy after final integration           =   -401.505409544 Eh
Final COS-X integration done in                =    65.609 sec

----------------
TOTAL SCF ENERGY
----------------

Total Energy       :         -401.50540954 Eh          -10925.51764 eV

Components:
Nuclear Repulsion  :          457.69101531 Eh           12454.40570 eV
Electronic Energy  :         -859.19642485 Eh          -23379.92333 eV
One Electron Energy:        -1448.47061222 Eh          -39414.88917 eV
Two Electron Energy:          589.27418737 Eh           16034.96584 eV
Max COSX asymmetry :            0.00000048 Eh               0.00001 eV

Virial components:
Potential Energy   :         -800.82172248 Eh          -21791.46693 eV
Kinetic Energy     :          399.31631294 Eh           10865.94929 eV
Virial Ratio       :            2.00548211


DFT components:
N(Alpha)           :       35.000013719143 electrons
N(Beta)            :       33.000025340762 electrons
N(Total)           :       68.000039059905 electrons
E(X)               :      -41.655043995869 Eh       
E(C)               :       -2.251057036210 Eh       
E(XC)              :      -43.906101032079 Eh       
DFET-embed. en.    :        0.000000000000 Eh       

---------------
SCF CONVERGENCE
---------------

  Last Energy change         ...    1.1710e-09  Tolerance :   1.0000e-08
  Last MAX-Density change    ...    0.0000e+00  Tolerance :   1.0000e-07
  Last RMS-Density change    ...    0.0000e+00  Tolerance :   5.0000e-09
  Last DIIS Error            ...    5.5500e-06  Tolerance :   5.0000e-07

             **** THE GBW FILE WAS UPDATED (quinoline_triplet.gbw) ****
             **** DENSITY quinoline_triplet.scfp WAS UPDATED ****
             **** ENERGY FILE WAS UPDATED (quinoline_triplet.en.tmp) ****
----------------------
UHF SPIN CONTAMINATION
----------------------

Warning: in a DFT calculation there is little theoretical justification to 
         calculate <S**2> as in Hartree-Fock theory. We will do it anyways
         but you should keep in mind that the values have only limited relevance

Expectation value of <S**2>     :     2.031696
Ideal value S*(S+1) for S=1.0   :     2.000000
Deviation                       :     0.031696

             **** THE GBW FILE WAS UPDATED (quinoline_triplet.gbw) ****
             **** DENSITY quinoline_triplet.scfp WAS UPDATED ****
----------------
ORBITAL ENERGIES
----------------
                 SPIN UP ORBITALS
  NO   OCC          E(Eh)            E(eV) 
   0   1.0000     -14.385734      -391.4557 
   1   1.0000     -10.274508      -279.5836 
   2   1.0000     -10.261514      -279.2300 
   3   1.0000     -10.257656      -279.1250 
   4   1.0000     -10.256748      -279.1003 
   5   1.0000     -10.252797      -278.9928 
   6   1.0000     -10.252403      -278.9821 
   7   1.0000     -10.248573      -278.8779 
   8   1.0000     -10.247565      -278.8504 
   9   1.0000     -10.238980      -278.6168 
  10   1.0000      -0.968370       -26.3507 
  11   1.0000      -0.883811       -24.0497 
  12   1.0000      -0.835797       -22.7432 
  13   1.0000      -0.785818       -21.3832 
  14   1.0000      -0.771005       -20.9801 
  15   1.0000      -0.682026       -18.5589 
  16   1.0000      -0.648424       -17.6445 
  17   1.0000      -0.630837       -17.1660 
  18   1.0000      -0.553492       -15.0613 
  19   1.0000      -0.537985       -14.6393 
  20   1.0000      -0.524877       -14.2826 
  21   1.0000      -0.476849       -12.9757 
  22   1.0000      -0.464670       -12.6443 
  23   1.0000      -0.447952       -12.1894 
  24   1.0000      -0.441447       -12.0124 
  25   1.0000      -0.426349       -11.6015 
  26   1.0000      -0.417154       -11.3513 
  27   1.0000      -0.385778       -10.4976 
  28   1.0000      -0.379840       -10.3360 
  29   1.0000      -0.366172        -9.9640 
  30   1.0000      -0.342710        -9.3256 
  31   1.0000      -0.286061        -7.7841 
  32   1.0000      -0.277365        -7.5475 
  33   1.0000      -0.274026        -7.4566 
  34   1.0000      -0.151230        -4.1152 
  35   0.0000      -0.024027        -0.6538 
  36   0.0000      -0.021741        -0.5916 
  37   0.0000      -0.002186        -0.0595 
  38   0.0000       0.008675         0.2360 
  39   0.0000       0.015978         0.4348 
  40   0.0000       0.030079         0.8185 
  41   0.0000       0.033058         0.8996 
  42   0.0000       0.033717         0.9175 
  43   0.0000       0.040501         1.1021 
  44   0.0000       0.051337         1.3969 
  45   0.0000       0.053386         1.4527 
  46   0.0000       0.054726         1.4892 
  47   0.0000       0.057531         1.5655 
  48   0.0000       0.061178         1.6647 
  49   0.0000       0.073808         2.0084 
  50   0.0000       0.087794         2.3890 
  51   0.0000       0.088723         2.4143 
  52   0.0000       0.091304         2.4845 
  53   0.0000       0.094125         2.5613 
  54   0.0000       0.097486         2.6527 
  55   0.0000       0.100288         2.7290 
  56   0.0000       0.105708         2.8765 
  57   0.0000       0.112442         3.0597 
  58   0.0000       0.115130         3.1328 
  59   0.0000       0.119023         3.2388 
  60   0.0000       0.119367         3.2481 
  61   0.0000       0.122396         3.3306 
  62   0.0000       0.126592         3.4447 
  63   0.0000       0.128496         3.4965 
  64   0.0000       0.133962         3.6453 
  65   0.0000       0.134929         3.6716 
  66   0.0000       0.136543         3.7155 
  67   0.0000       0.146202         3.9784 
  68   0.0000       0.148331         4.0363 
  69   0.0000       0.151667         4.1271 
  70   0.0000       0.159220         4.3326 
  71   0.0000       0.172165         4.6849 
  72   0.0000       0.173744         4.7278 
  73   0.0000       0.175628         4.7791 
  74   0.0000       0.176923         4.8143 
  75   0.0000       0.180947         4.9238 
  76   0.0000       0.185469         5.0469 
  77   0.0000       0.185769         5.0550 
  78   0.0000       0.188186         5.1208 
  79   0.0000       0.189654         5.1607 
  80   0.0000       0.199204         5.4206 
  81   0.0000       0.206216         5.6114 
  82   0.0000       0.220366         5.9965 
  83   0.0000       0.222867         6.0645 
  84   0.0000       0.229542         6.2461 
  85   0.0000       0.233780         6.3615 
  86   0.0000       0.244327         6.6485 
  87   0.0000       0.248337         6.7576 
  88   0.0000       0.248841         6.7713 
  89   0.0000       0.260137         7.0787 
  90   0.0000       0.266457         7.2507 
  91   0.0000       0.278005         7.5649 
  92   0.0000       0.285457         7.7677 
  93   0.0000       0.289628         7.8812 
  94   0.0000       0.292181         7.9506 
  95   0.0000       0.298463         8.1216 
  96   0.0000       0.302718         8.2374 
  97   0.0000       0.305699         8.3185 
  98   0.0000       0.315066         8.5734 
  99   0.0000       0.317438         8.6379 
 100   0.0000       0.331202         9.0125 
 101   0.0000       0.337614         9.1869 
 102   0.0000       0.338435         9.2093 
 103   0.0000       0.343704         9.3527 
 104   0.0000       0.349121         9.5001 
 105   0.0000       0.360300         9.8043 
 106   0.0000       0.363284         9.8855 
 107   0.0000       0.370243        10.0748 
 108   0.0000       0.382947        10.4205 
 109   0.0000       0.385400        10.4873 
 110   0.0000       0.391094        10.6422 
 111   0.0000       0.399316        10.8659 
 112   0.0000       0.413958        11.2644 
 113   0.0000       0.418985        11.4012 
 114   0.0000       0.420340        11.4380 
 115   0.0000       0.424694        11.5565 
 116   0.0000       0.435790        11.8585 
 117   0.0000       0.437678        11.9098 
 118   0.0000       0.440036        11.9740 
 119   0.0000       0.455210        12.3869 
 120   0.0000       0.456329        12.4174 
 121   0.0000       0.465060        12.6549 
 122   0.0000       0.477859        13.0032 
 123   0.0000       0.490225        13.3397 
 124   0.0000       0.507052        13.7976 
 125   0.0000       0.515374        14.0240 
 126   0.0000       0.526531        14.3276 
 127   0.0000       0.532776        14.4976 
 128   0.0000       0.547048        14.8859 
 129   0.0000       0.561529        15.2800 
 130   0.0000       0.563620        15.3369 
 131   0.0000       0.580270        15.7900 
 132   0.0000       0.584872        15.9152 
 133   0.0000       0.605859        16.4863 
 134   0.0000       0.607032        16.5182 
 135   0.0000       0.625701        17.0262 
 136   0.0000       0.632583        17.2135 
 137   0.0000       0.644176        17.5289 
 138   0.0000       0.648628        17.6501 
 139   0.0000       0.660266        17.9667 
 140   0.0000       0.666488        18.1361 
 141   0.0000       0.675641        18.3851 
 142   0.0000       0.685416        18.6511 
 143   0.0000       0.690326        18.7847 
 144   0.0000       0.695125        18.9153 
 145   0.0000       0.698818        19.0158 
 146   0.0000       0.714235        19.4353 
 147   0.0000       0.717564        19.5259 
 148   0.0000       0.733857        19.9693 
 149   0.0000       0.736345        20.0370 
 150   0.0000       0.749424        20.3929 
 151   0.0000       0.768547        20.9132 
 152   0.0000       0.822875        22.3916 
 153   0.0000       0.832008        22.6401 
 154   0.0000       0.843903        22.9638 
 155   0.0000       0.864128        23.5141 
 156   0.0000       0.877009        23.8646 
 157   0.0000       0.880842        23.9689 
 158   0.0000       0.891032        24.2462 
 159   0.0000       0.910254        24.7693 
 160   0.0000       0.912339        24.8260 
 161   0.0000       0.934226        25.4216 
 162   0.0000       0.938198        25.5297 
 163   0.0000       0.954120        25.9629 
 164   0.0000       0.962076        26.1794 
 165   0.0000       0.976916        26.5832 
 166   0.0000       0.982490        26.7349 
 167   0.0000       0.998950        27.1828 
 168   0.0000       1.007203        27.4074 
 169   0.0000       1.014262        27.5995 
 170   0.0000       1.017128        27.6775 
 171   0.0000       1.032088        28.0846 
 172   0.0000       1.049026        28.5455 
 173   0.0000       1.052124        28.6298 
 174   0.0000       1.055292        28.7160 
 175   0.0000       1.056715        28.7547 
 176   0.0000       1.075016        29.2527 
 177   0.0000       1.080801        29.4101 
 178   0.0000       1.088054        29.6075 
 179   0.0000       1.095054        29.7979 
 180   0.0000       1.111821        30.2542 
 181   0.0000       1.112764        30.2799 
 182   0.0000       1.114851        30.3366 
 183   0.0000       1.118321        30.4311 
 184   0.0000       1.138136        30.9703 
 185   0.0000       1.151024        31.3209 
 186   0.0000       1.179521        32.0964 
 187   0.0000       1.203609        32.7519 
 188   0.0000       1.212795        33.0018 
 189   0.0000       1.214201        33.0401 
 190   0.0000       1.231079        33.4994 
 191   0.0000       1.238540        33.7024 
 192   0.0000       1.242103        33.7993 
 193   0.0000       1.259604        34.2756 
 194   0.0000       1.265686        34.4411 
 195   0.0000       1.274962        34.6935 
 196   0.0000       1.295917        35.2637 
 197   0.0000       1.295942        35.2644 
 198   0.0000       1.297754        35.3137 
 199   0.0000       1.319609        35.9084 
 200   0.0000       1.322376        35.9837 
 201   0.0000       1.333929        36.2981 
 202   0.0000       1.345155        36.6035 
 203   0.0000       1.354398        36.8550 
 204   0.0000       1.367955        37.2239 
 205   0.0000       1.393730        37.9253 
 206   0.0000       1.411517        38.4093 
 207   0.0000       1.424522        38.7632 
 208   0.0000       1.425758        38.7968 
 209   0.0000       1.433913        39.0188 
 210   0.0000       1.440923        39.2095 
 211   0.0000       1.465564        39.8800 
 212   0.0000       1.482965        40.3535 
 213   0.0000       1.489409        40.5289 
 214   0.0000       1.508472        41.0476 
 215   0.0000       1.512090        41.1461 
 216   0.0000       1.519718        41.3536 
 217   0.0000       1.525315        41.5059 
 218   0.0000       1.557761        42.3888 
 219   0.0000       1.576893        42.9095 
 220   0.0000       1.578763        42.9603 
 221   0.0000       1.584996        43.1299 
 222   0.0000       1.599082        43.5132 
 223   0.0000       1.624973        44.2178 
 224   0.0000       1.635345        44.5000 
 225   0.0000       1.657978        45.1159 
 226   0.0000       1.660674        45.1892 
 227   0.0000       1.682474        45.7825 
 228   0.0000       1.723844        46.9082 
 229   0.0000       1.741471        47.3878 
 230   0.0000       1.752356        47.6840 
 231   0.0000       1.773152        48.2499 
 232   0.0000       1.789393        48.6919 
 233   0.0000       1.806064        49.1455 
 234   0.0000       1.826789        49.7095 
 235   0.0000       1.843516        50.1646 
 236   0.0000       1.857022        50.5321 
 237   0.0000       1.872759        50.9604 
 238   0.0000       1.877204        51.0813 
 239   0.0000       1.901350        51.7384 
 240   0.0000       1.912309        52.0366 
 241   0.0000       1.936701        52.7003 
 242   0.0000       1.951719        53.1090 
 243   0.0000       1.966570        53.5131 
 244   0.0000       1.978181        53.8290 
 245   0.0000       2.012915        54.7742 
 246   0.0000       2.032119        55.2968 
 247   0.0000       2.119406        57.6720 
 248   0.0000       2.149963        58.5035 
 249   0.0000       2.189254        59.5726 
 250   0.0000       2.190995        59.6200 
 251   0.0000       2.224986        60.5449 
 252   0.0000       2.300599        62.6025 
 253   0.0000       2.353947        64.0541 
 254   0.0000       2.363651        64.3182 
 255   0.0000       2.419857        65.8477 
 256   0.0000       2.440495        66.4093 
 257   0.0000       2.455225        66.8101 
 258   0.0000       2.510758        68.3212 
 259   0.0000       2.529113        68.8207 
 260   0.0000       2.598778        70.7163 
 261   0.0000       2.633990        71.6745 
 262   0.0000       2.642931        71.9178 
 263   0.0000       2.663764        72.4847 
 264   0.0000       2.691507        73.2396 
 265   0.0000       2.758922        75.0741 
 266   0.0000       2.768339        75.3303 
 267   0.0000       2.808418        76.4209 
 268   0.0000       2.812057        76.5200 
 269   0.0000       2.815322        76.6088 
 270   0.0000       2.824098        76.8476 
 271   0.0000       2.834452        77.1294 
 272   0.0000       2.858056        77.7716 
 273   0.0000       2.873811        78.2004 
 274   0.0000       2.909560        79.1731 
 275   0.0000       2.934072        79.8402 
 276   0.0000       2.946473        80.1776 
 277   0.0000       2.947628        80.2090 
 278   0.0000       2.953674        80.3736 
 279   0.0000       2.969244        80.7972 
 280   0.0000       2.980659        81.1079 
 281   0.0000       2.988064        81.3094 
 282   0.0000       3.012572        81.9762 
 283   0.0000       3.019333        82.1602 
 284   0.0000       3.032287        82.5127 
 285   0.0000       3.040405        82.7336 
 286   0.0000       3.042466        82.7897 
 287   0.0000       3.071555        83.5813 
 288   0.0000       3.075902        83.6996 
 289   0.0000       3.088144        84.0327 
 290   0.0000       3.111704        84.6738 
 291   0.0000       3.117503        84.8316 
 292   0.0000       3.137025        85.3628 
 293   0.0000       3.151446        85.7552 
 294   0.0000       3.167499        86.1920 
 295   0.0000       3.175581        86.4119 
 296   0.0000       3.204683        87.2039 
 297   0.0000       3.207577        87.2826 
 298   0.0000       3.223223        87.7083 
 299   0.0000       3.225134        87.7604 
 300   0.0000       3.236335        88.0652 
 301   0.0000       3.262904        88.7881 
 302   0.0000       3.265614        88.8619 
 303   0.0000       3.285622        89.4063 
 304   0.0000       3.307599        90.0044 
 305   0.0000       3.318493        90.3008 
 306   0.0000       3.322249        90.4030 
 307   0.0000       3.323409        90.4345 
 308   0.0000       3.345841        91.0450 
 309   0.0000       3.373191        91.7892 
 310   0.0000       3.374637        91.8285 
 311   0.0000       3.401276        92.5534 
 312   0.0000       3.415246        92.9336 
 313   0.0000       3.436145        93.5023 
 314   0.0000       3.440030        93.6080 
 315   0.0000       3.456356        94.0522 
 316   0.0000       3.486649        94.8766 
 317   0.0000       3.502191        95.2995 
 318   0.0000       3.504711        95.3680 
 319   0.0000       3.526945        95.9730 
 320   0.0000       3.535566        96.2076 
 321   0.0000       3.543504        96.4236 
 322   0.0000       3.547486        96.5320 
 323   0.0000       3.560254        96.8794 
 324   0.0000       3.576361        97.3177 
 325   0.0000       3.583063        97.5001 
 326   0.0000       3.604223        98.0759 
 327   0.0000       3.608075        98.1807 
 328   0.0000       3.646621        99.2296 
 329   0.0000       3.661576        99.6365 
 330   0.0000       3.682963       100.2185 
 331   0.0000       3.701195       100.7146 
 332   0.0000       3.712772       101.0297 
 333   0.0000       3.714847       101.0861 
 334   0.0000       3.719094       101.2017 
 335   0.0000       3.740054       101.7721 
 336   0.0000       3.753252       102.1312 
 337   0.0000       3.754099       102.1542 
 338   0.0000       3.780011       102.8593 
 339   0.0000       3.794144       103.2439 
 340   0.0000       3.794226       103.2461 
 341   0.0000       3.805332       103.5483 
 342   0.0000       3.811581       103.7184 
 343   0.0000       3.813592       103.7731 
 344   0.0000       3.824862       104.0798 
 345   0.0000       3.828405       104.1762 
 346   0.0000       3.854529       104.8871 
 347   0.0000       3.858635       104.9988 
 348   0.0000       3.866932       105.2246 
 349   0.0000       3.877643       105.5160 
 350   0.0000       3.881520       105.6215 
 351   0.0000       3.912098       106.4536 
 352   0.0000       3.948069       107.4324 
 353   0.0000       3.963410       107.8499 
 354   0.0000       3.979112       108.2771 
 355   0.0000       4.009966       109.1167 
 356   0.0000       4.021403       109.4279 
 357   0.0000       4.035297       109.8060 
 358   0.0000       4.039499       109.9204 
 359   0.0000       4.061456       110.5178 
 360   0.0000       4.085660       111.1765 
 361   0.0000       4.091012       111.3221 
 362   0.0000       4.126773       112.2952 
 363   0.0000       4.135430       112.5308 
 364   0.0000       4.164060       113.3098 
 365   0.0000       4.174904       113.6049 
 366   0.0000       4.218473       114.7905 
 367   0.0000       4.239226       115.3552 
 368   0.0000       4.263922       116.0272 
 369   0.0000       4.265696       116.0755 
 370   0.0000       4.272725       116.2667 
 371   0.0000       4.288880       116.7064 
 372   0.0000       4.321545       117.5952 
 373   0.0000       4.333759       117.9276 
 374   0.0000       4.354306       118.4867 
 375   0.0000       4.364192       118.7557 
 376   0.0000       4.388177       119.4084 
 377   0.0000       4.403082       119.8140 
 378   0.0000       4.411578       120.0451 
 379   0.0000       4.421121       120.3048 
 380   0.0000       4.430001       120.5465 
 381   0.0000       4.471304       121.6704 
 382   0.0000       4.481321       121.9429 
 383   0.0000       4.490937       122.2046 
 384   0.0000       4.507649       122.6594 
 385   0.0000       4.556400       123.9859 
 386   0.0000       4.566396       124.2580 
 387   0.0000       4.571845       124.4062 
 388   0.0000       4.587842       124.8415 
 389   0.0000       4.590021       124.9008 
 390   0.0000       4.616880       125.6317 
 391   0.0000       4.622196       125.7763 
 392   0.0000       4.657864       126.7469 
 393   0.0000       4.661133       126.8359 
 394   0.0000       4.690370       127.6314 
 395   0.0000       4.740325       128.9908 
 396   0.0000       4.817763       131.0980 
 397   0.0000       4.867981       132.4645 
 398   0.0000       4.889848       133.0595 
 399   0.0000       4.954143       134.8091 
 400   0.0000       4.964316       135.0859 
 401   0.0000       5.013552       136.4257 
 402   0.0000       5.122316       139.3853 
 403   0.0000       5.158333       140.3654 
 404   0.0000       5.188549       141.1876 
 405   0.0000       5.228590       142.2772 
 406   0.0000       5.304242       144.3358 
 407   0.0000       5.351246       145.6148 
 408   0.0000       5.388014       146.6153 
 409   0.0000       5.420279       147.4933 
 410   0.0000       5.455522       148.4523 
 411   0.0000       5.524328       150.3246 
 412   0.0000       5.559045       151.2693 
 413   0.0000       5.636306       153.3717 
 414   0.0000       5.687226       154.7573 
 415   0.0000       5.688581       154.7941 
 416   0.0000       5.696501       155.0097 
 417   0.0000       5.727088       155.8420 
 418   0.0000       5.799477       157.8118 
 419   0.0000       5.811944       158.1510 
 420   0.0000       5.820989       158.3972 
 421   0.0000       5.851537       159.2284 
 422   0.0000       5.897104       160.4684 
 423   0.0000       5.909632       160.8093 
 424   0.0000       5.945152       161.7758 
 425   0.0000       6.000703       163.2874 
 426   0.0000       6.051886       164.6802 
 427   0.0000       6.074403       165.2929 
 428   0.0000       6.174683       168.0217 
 429   0.0000       6.281595       170.9309 
 430   0.0000       6.394674       174.0079 
 431   0.0000       6.440171       175.2460 
 432   0.0000       6.479878       176.3264 
 433   0.0000       6.538877       177.9319 
 434   0.0000       6.545608       178.1150 
 435   0.0000       6.558341       178.4615 
 436   0.0000       6.648968       180.9276 
 437   0.0000       6.792955       184.8457 
 438   0.0000       6.947220       189.0435 
 439   0.0000       7.138614       194.2516 
 440   0.0000       7.691798       209.3045 
 441   0.0000       7.885160       214.5661 
 442   0.0000       8.073436       219.6894 
 443   0.0000       8.125988       221.1194 
 444   0.0000       8.307452       226.0572 
 445   0.0000       8.518371       231.7967 
 446   0.0000       8.593259       233.8345 
 447   0.0000       8.827284       240.2026 
 448   0.0000       9.133356       248.5313 
 449   0.0000      11.198666       304.7312 
 450   0.0000      29.065368       790.9089 
 451   0.0000      29.272635       796.5489 
 452   0.0000      29.450918       801.4002 
 453   0.0000      29.469982       801.9190 
 454   0.0000      29.654603       806.9428 
 455   0.0000      29.841496       812.0284 
 456   0.0000      29.908009       813.8383 
 457   0.0000      30.096972       818.9802 
 458   0.0000      30.404816       827.3571 
 459   0.0000      37.351012      1016.3727 
 460   0.0000      37.390768      1017.4545 
 461   0.0000      37.476293      1019.7818 
 462   0.0000      37.555175      1021.9283 
 463   0.0000      37.618249      1023.6446 
 464   0.0000      37.792006      1028.3728 
 465   0.0000      37.854519      1030.0738 
 466   0.0000      42.069859      1144.7791 
 467   0.0000     133.628266      3636.2100 
 468   0.0000     133.845264      3642.1148 
 469   0.0000     134.036822      3647.3273 
 470   0.0000     134.061727      3648.0051 
 471   0.0000     134.255401      3653.2752 
 472   0.0000     134.456770      3658.7547 
 473   0.0000     134.528262      3660.7001 
 474   0.0000     134.741331      3666.4980 
 475   0.0000     135.074517      3675.5645 
 476   0.0000     191.807722      5219.3535 

                 SPIN DOWN ORBITALS
  NO   OCC          E(Eh)            E(eV) 
   0   1.0000     -14.378213      -391.2511 
   1   1.0000     -10.276660      -279.6421 
   2   1.0000     -10.254902      -279.0501 
   3   1.0000     -10.254853      -279.0487 
   4   1.0000     -10.252467      -278.9838 
   5   1.0000     -10.250663      -278.9347 
   6   1.0000     -10.248441      -278.8742 
   7   1.0000     -10.247268      -278.8423 
   8   1.0000     -10.240895      -278.6689 
   9   1.0000     -10.237768      -278.5838 
  10   1.0000      -0.957174       -26.0460 
  11   1.0000      -0.870190       -23.6791 
  12   1.0000      -0.822856       -22.3910 
  13   1.0000      -0.781476       -21.2651 
  14   1.0000      -0.749242       -20.3879 
  15   1.0000      -0.667851       -18.1732 
  16   1.0000      -0.643701       -17.5160 
  17   1.0000      -0.621120       -16.9015 
  18   1.0000      -0.544897       -14.8274 
  19   1.0000      -0.532968       -14.5028 
  20   1.0000      -0.520488       -14.1632 
  21   1.0000      -0.475268       -12.9327 
  22   1.0000      -0.459246       -12.4967 
  23   1.0000      -0.443442       -12.0667 
  24   1.0000      -0.421809       -11.4780 
  25   1.0000      -0.416524       -11.3342 
  26   1.0000      -0.413083       -11.2406 
  27   1.0000      -0.382276       -10.4023 
  28   1.0000      -0.361722        -9.8429 
  29   1.0000      -0.338906        -9.2221 
  30   1.0000      -0.295334        -8.0364 
  31   1.0000      -0.272528        -7.4159 
  32   1.0000      -0.270043        -7.3482 
  33   0.0000      -0.160651        -4.3715 
  34   0.0000      -0.045443        -1.2366 
  35   0.0000      -0.012616        -0.3433 
  36   0.0000      -0.000152        -0.0041 
  37   0.0000       0.010307         0.2805 
  38   0.0000       0.013796         0.3754 
  39   0.0000       0.017582         0.4784 
  40   0.0000       0.031735         0.8635 
  41   0.0000       0.034396         0.9360 
  42   0.0000       0.042332         1.1519 
  43   0.0000       0.042721         1.1625 
  44   0.0000       0.054561         1.4847 
  45   0.0000       0.058523         1.5925 
  46   0.0000       0.058882         1.6022 
  47   0.0000       0.065650         1.7864 
  48   0.0000       0.077467         2.1080 
  49   0.0000       0.078693         2.1414 
  50   0.0000       0.089140         2.4256 
  51   0.0000       0.092590         2.5195 
  52   0.0000       0.095953         2.6110 
  53   0.0000       0.100261         2.7282 
  54   0.0000       0.101904         2.7729 
  55   0.0000       0.106068         2.8863 
  56   0.0000       0.107909         2.9363 
  57   0.0000       0.114144         3.1060 
  58   0.0000       0.117077         3.1858 
  59   0.0000       0.122467         3.3325 
  60   0.0000       0.123809         3.3690 
  61   0.0000       0.125486         3.4146 
  62   0.0000       0.129491         3.5236 
  63   0.0000       0.133441         3.6311 
  64   0.0000       0.136859         3.7241 
  65   0.0000       0.137483         3.7411 
  66   0.0000       0.138187         3.7603 
  67   0.0000       0.148335         4.0364 
  68   0.0000       0.150304         4.0900 
  69   0.0000       0.153756         4.1839 
  70   0.0000       0.162010         4.4085 
  71   0.0000       0.176682         4.8078 
  72   0.0000       0.178523         4.8579 
  73   0.0000       0.180536         4.9126 
  74   0.0000       0.183167         4.9842 
  75   0.0000       0.185885         5.0582 
  76   0.0000       0.189713         5.1624 
  77   0.0000       0.192831         5.2472 
  78   0.0000       0.194017         5.2795 
  79   0.0000       0.197446         5.3728 
  80   0.0000       0.200375         5.4525 
  81   0.0000       0.211590         5.7577 
  82   0.0000       0.226953         6.1757 
  83   0.0000       0.229932         6.2568 
  84   0.0000       0.233764         6.3610 
  85   0.0000       0.241064         6.5597 
  86   0.0000       0.247996         6.7483 
  87   0.0000       0.251145         6.8340 
  88   0.0000       0.259570         7.0633 
  89   0.0000       0.271216         7.3802 
  90   0.0000       0.275433         7.4949 
  91   0.0000       0.286868         7.8061 
  92   0.0000       0.289395         7.8748 
  93   0.0000       0.297174         8.0865 
  94   0.0000       0.300864         8.1869 
  95   0.0000       0.304416         8.2836 
  96   0.0000       0.310939         8.4611 
  97   0.0000       0.313757         8.5377 
  98   0.0000       0.321464         8.7475 
  99   0.0000       0.328946         8.9511 
 100   0.0000       0.335316         9.1244 
 101   0.0000       0.340818         9.2741 
 102   0.0000       0.342314         9.3148 
 103   0.0000       0.348042         9.4707 
 104   0.0000       0.359871         9.7926 
 105   0.0000       0.364811         9.9270 
 106   0.0000       0.367475         9.9995 
 107   0.0000       0.381412        10.3787 
 108   0.0000       0.390006        10.6126 
 109   0.0000       0.394213        10.7271 
 110   0.0000       0.395126        10.7519 
 111   0.0000       0.403544        10.9810 
 112   0.0000       0.417297        11.3552 
 113   0.0000       0.423570        11.5259 
 114   0.0000       0.429375        11.6839 
 115   0.0000       0.432110        11.7583 
 116   0.0000       0.441048        12.0015 
 117   0.0000       0.441802        12.0221 
 118   0.0000       0.444876        12.1057 
 119   0.0000       0.461432        12.5562 
 120   0.0000       0.466588        12.6965 
 121   0.0000       0.472182        12.8487 
 122   0.0000       0.483437        13.1550 
 123   0.0000       0.494340        13.4517 
 124   0.0000       0.512258        13.9393 
 125   0.0000       0.519080        14.1249 
 126   0.0000       0.531625        14.4663 
 127   0.0000       0.541791        14.7429 
 128   0.0000       0.551027        14.9942 
 129   0.0000       0.568447        15.4682 
 130   0.0000       0.573131        15.5957 
 131   0.0000       0.584026        15.8922 
 132   0.0000       0.588649        16.0180 
 133   0.0000       0.610130        16.6025 
 134   0.0000       0.611429        16.6378 
 135   0.0000       0.629631        17.1331 
 136   0.0000       0.637458        17.3461 
 137   0.0000       0.648726        17.6527 
 138   0.0000       0.657779        17.8991 
 139   0.0000       0.665998        18.1227 
 140   0.0000       0.671529        18.2732 
 141   0.0000       0.690601        18.7922 
 142   0.0000       0.690627        18.7929 
 143   0.0000       0.696400        18.9500 
 144   0.0000       0.703418        19.1410 
 145   0.0000       0.708714        19.2851 
 146   0.0000       0.718610        19.5544 
 147   0.0000       0.726592        19.7716 
 148   0.0000       0.737945        20.0805 
 149   0.0000       0.746299        20.3078 
 150   0.0000       0.753361        20.5000 
 151   0.0000       0.774665        21.0797 
 152   0.0000       0.834779        22.7155 
 153   0.0000       0.840453        22.8699 
 154   0.0000       0.851254        23.1638 
 155   0.0000       0.870381        23.6843 
 156   0.0000       0.879348        23.9283 
 157   0.0000       0.884824        24.0773 
 158   0.0000       0.895915        24.3791 
 159   0.0000       0.914667        24.8894 
 160   0.0000       0.923562        25.1314 
 161   0.0000       0.942242        25.6397 
 162   0.0000       0.945500        25.7284 
 163   0.0000       0.957285        26.0490 
 164   0.0000       0.971829        26.4448 
 165   0.0000       0.986285        26.8382 
 166   0.0000       0.990067        26.9411 
 167   0.0000       1.002301        27.2740 
 168   0.0000       1.016845        27.6698 
 169   0.0000       1.017016        27.6744 
 170   0.0000       1.022407        27.8211 
 171   0.0000       1.035611        28.1804 
 172   0.0000       1.050998        28.5991 
 173   0.0000       1.060238        28.8506 
 174   0.0000       1.066051        29.0087 
 175   0.0000       1.071708        29.1626 
 176   0.0000       1.078767        29.3547 
 177   0.0000       1.094652        29.7870 
 178   0.0000       1.099926        29.9305 
 179   0.0000       1.104723        30.0610 
 180   0.0000       1.116443        30.3800 
 181   0.0000       1.122707        30.5504 
 182   0.0000       1.123938        30.5839 
 183   0.0000       1.126422        30.6515 
 184   0.0000       1.150162        31.2975 
 185   0.0000       1.171800        31.8863 
 186   0.0000       1.185684        32.2641 
 187   0.0000       1.218713        33.1629 
 188   0.0000       1.219117        33.1739 
 189   0.0000       1.226078        33.3633 
 190   0.0000       1.244753        33.8715 
 191   0.0000       1.245290        33.8861 
 192   0.0000       1.247274        33.9400 
 193   0.0000       1.264213        34.4010 
 194   0.0000       1.280316        34.8392 
 195   0.0000       1.282221        34.8910 
 196   0.0000       1.302128        35.4327 
 197   0.0000       1.303523        35.4707 
 198   0.0000       1.308330        35.6015 
 199   0.0000       1.329615        36.1807 
 200   0.0000       1.329721        36.1835 
 201   0.0000       1.338055        36.4103 
 202   0.0000       1.354416        36.8555 
 203   0.0000       1.358029        36.9539 
 204   0.0000       1.379047        37.5258 
 205   0.0000       1.398907        38.0662 
 206   0.0000       1.416816        38.5535 
 207   0.0000       1.430304        38.9206 
 208   0.0000       1.432766        38.9875 
 209   0.0000       1.444443        39.3053 
 210   0.0000       1.445987        39.3473 
 211   0.0000       1.470798        40.0224 
 212   0.0000       1.489332        40.5268 
 213   0.0000       1.496076        40.7103 
 214   0.0000       1.516479        41.2655 
 215   0.0000       1.524118        41.4733 
 216   0.0000       1.525486        41.5106 
 217   0.0000       1.530501        41.6471 
 218   0.0000       1.562908        42.5289 
 219   0.0000       1.585437        43.1419 
 220   0.0000       1.590234        43.2725 
 221   0.0000       1.593035        43.3487 
 222   0.0000       1.606958        43.7276 
 223   0.0000       1.632150        44.4130 
 224   0.0000       1.649869        44.8952 
 225   0.0000       1.664013        45.2801 
 226   0.0000       1.667550        45.3764 
 227   0.0000       1.693311        46.0773 
 228   0.0000       1.741030        47.3758 
 229   0.0000       1.745294        47.4919 
 230   0.0000       1.757365        47.8203 
 231   0.0000       1.778471        48.3947 
 232   0.0000       1.795819        48.8667 
 233   0.0000       1.812479        49.3200 
 234   0.0000       1.833134        49.8821 
 235   0.0000       1.850894        50.3654 
 236   0.0000       1.861646        50.6580 
 237   0.0000       1.881612        51.2013 
 238   0.0000       1.884653        51.2840 
 239   0.0000       1.904463        51.8231 
 240   0.0000       1.916572        52.1526 
 241   0.0000       1.941208        52.8230 
 242   0.0000       1.956586        53.2414 
 243   0.0000       1.981080        53.9079 
 244   0.0000       1.982478        53.9460 
 245   0.0000       2.018563        54.9279 
 246   0.0000       2.036836        55.4251 
 247   0.0000       2.123894        57.7941 
 248   0.0000       2.157253        58.7018 
 249   0.0000       2.193726        59.6943 
 250   0.0000       2.198795        59.8323 
 251   0.0000       2.229599        60.6705 
 252   0.0000       2.305277        62.7298 
 253   0.0000       2.358344        64.1738 
 254   0.0000       2.375841        64.6499 
 255   0.0000       2.424987        65.9872 
 256   0.0000       2.447465        66.5989 
 257   0.0000       2.466489        67.1166 
 258   0.0000       2.514312        68.4179 
 259   0.0000       2.534094        68.9562 
 260   0.0000       2.612325        71.0850 
 261   0.0000       2.637393        71.7671 
 262   0.0000       2.651328        72.1463 
 263   0.0000       2.667956        72.5988 
 264   0.0000       2.706432        73.6458 
 265   0.0000       2.773892        75.4814 
 266   0.0000       2.780684        75.6663 
 267   0.0000       2.816193        76.6325 
 268   0.0000       2.822443        76.8026 
 269   0.0000       2.829893        77.0053 
 270   0.0000       2.833713        77.1092 
 271   0.0000       2.841083        77.3098 
 272   0.0000       2.869485        78.0827 
 273   0.0000       2.889094        78.6162 
 274   0.0000       2.926524        79.6348 
 275   0.0000       2.944642        80.1278 
 276   0.0000       2.959425        80.5300 
 277   0.0000       2.960452        80.5580 
 278   0.0000       2.968685        80.7820 
 279   0.0000       2.989282        81.3425 
 280   0.0000       2.992208        81.4221 
 281   0.0000       3.001379        81.6717 
 282   0.0000       3.020370        82.1884 
 283   0.0000       3.030716        82.4700 
 284   0.0000       3.038843        82.6911 
 285   0.0000       3.054216        83.1094 
 286   0.0000       3.060208        83.2725 
 287   0.0000       3.080537        83.8257 
 288   0.0000       3.085756        83.9677 
 289   0.0000       3.099951        84.3539 
 290   0.0000       3.121967        84.9530 
 291   0.0000       3.122898        84.9784 
 292   0.0000       3.138552        85.4044 
 293   0.0000       3.165350        86.1336 
 294   0.0000       3.174103        86.3717 
 295   0.0000       3.184415        86.6523 
 296   0.0000       3.213908        87.4549 
 297   0.0000       3.215169        87.4892 
 298   0.0000       3.234106        88.0045 
 299   0.0000       3.236492        88.0694 
 300   0.0000       3.242573        88.2349 
 301   0.0000       3.275620        89.1342 
 302   0.0000       3.278363        89.2088 
 303   0.0000       3.300147        89.8016 
 304   0.0000       3.323861        90.4469 
 305   0.0000       3.330743        90.6341 
 306   0.0000       3.334105        90.7256 
 307   0.0000       3.335324        90.7588 
 308   0.0000       3.353513        91.2537 
 309   0.0000       3.380995        92.0015 
 310   0.0000       3.386300        92.1459 
 311   0.0000       3.405909        92.6795 
 312   0.0000       3.425201        93.2045 
 313   0.0000       3.452336        93.9428 
 314   0.0000       3.453134        93.9646 
 315   0.0000       3.462412        94.2170 
 316   0.0000       3.501110        95.2700 
 317   0.0000       3.511421        95.5506 
 318   0.0000       3.511561        95.5544 
 319   0.0000       3.533656        96.1557 
 320   0.0000       3.547839        96.5416 
 321   0.0000       3.548452        96.5583 
 322   0.0000       3.559018        96.8458 
 323   0.0000       3.570333        97.1537 
 324   0.0000       3.584639        97.5430 
 325   0.0000       3.596928        97.8774 
 326   0.0000       3.607442        98.1635 
 327   0.0000       3.618107        98.4537 
 328   0.0000       3.660068        99.5955 
 329   0.0000       3.667127        99.7876 
 330   0.0000       3.692312       100.4729 
 331   0.0000       3.710008       100.9544 
 332   0.0000       3.718633       101.1891 
 333   0.0000       3.723794       101.3296 
 334   0.0000       3.728263       101.4512 
 335   0.0000       3.753796       102.1460 
 336   0.0000       3.757924       102.2583 
 337   0.0000       3.774620       102.7126 
 338   0.0000       3.792209       103.1912 
 339   0.0000       3.799198       103.3814 
 340   0.0000       3.811759       103.7232 
 341   0.0000       3.816463       103.8512 
 342   0.0000       3.821270       103.9820 
 343   0.0000       3.825470       104.0963 
 344   0.0000       3.834101       104.3312 
 345   0.0000       3.845387       104.6383 
 346   0.0000       3.863357       105.1273 
 347   0.0000       3.870702       105.3272 
 348   0.0000       3.873760       105.4104 
 349   0.0000       3.891138       105.8832 
 350   0.0000       3.896155       106.0198 
 351   0.0000       3.917228       106.5932 
 352   0.0000       3.954317       107.6024 
 353   0.0000       3.974851       108.1612 
 354   0.0000       3.982011       108.3560 
 355   0.0000       4.015698       109.2727 
 356   0.0000       4.023873       109.4951 
 357   0.0000       4.042707       110.0077 
 358   0.0000       4.044462       110.0554 
 359   0.0000       4.067223       110.6748 
 360   0.0000       4.091519       111.3359 
 361   0.0000       4.100507       111.5805 
 362   0.0000       4.131408       112.4213 
 363   0.0000       4.140999       112.6823 
 364   0.0000       4.167191       113.3950 
 365   0.0000       4.184089       113.8548 
 366   0.0000       4.223085       114.9160 
 367   0.0000       4.243640       115.4753 
 368   0.0000       4.267936       116.1364 
 369   0.0000       4.275199       116.3341 
 370   0.0000       4.275270       116.3360 
 371   0.0000       4.292384       116.8017 
 372   0.0000       4.326450       117.7287 
 373   0.0000       4.339159       118.0745 
 374   0.0000       4.357546       118.5748 
 375   0.0000       4.374637       119.0399 
 376   0.0000       4.392994       119.5395 
 377   0.0000       4.409724       119.9947 
 378   0.0000       4.415784       120.1596 
 379   0.0000       4.432232       120.6072 
 380   0.0000       4.435017       120.6830 
 381   0.0000       4.474798       121.7654 
 382   0.0000       4.493518       122.2748 
 383   0.0000       4.497559       122.3848 
 384   0.0000       4.522327       123.0588 
 385   0.0000       4.569859       124.3522 
 386   0.0000       4.569912       124.3536 
 387   0.0000       4.577789       124.5680 
 388   0.0000       4.593209       124.9876 
 389   0.0000       4.597312       125.0992 
 390   0.0000       4.620117       125.7198 
 391   0.0000       4.631584       126.0318 
 392   0.0000       4.664857       126.9372 
 393   0.0000       4.673052       127.1602 
 394   0.0000       4.694552       127.7453 
 395   0.0000       4.751474       129.2942 
 396   0.0000       4.824783       131.2890 
 397   0.0000       4.887208       132.9877 
 398   0.0000       4.892008       133.1183 
 399   0.0000       4.969230       135.2196 
 400   0.0000       4.975456       135.3890 
 401   0.0000       5.030507       136.8870 
 402   0.0000       5.134019       139.7038 
 403   0.0000       5.173262       140.7716 
 404   0.0000       5.196767       141.4112 
 405   0.0000       5.241645       142.6324 
 406   0.0000       5.308588       144.4540 
 407   0.0000       5.355517       145.7310 
 408   0.0000       5.391005       146.6967 
 409   0.0000       5.423358       147.5771 
 410   0.0000       5.459291       148.5549 
 411   0.0000       5.528097       150.4272 
 412   0.0000       5.564503       151.4178 
 413   0.0000       5.640515       153.4862 
 414   0.0000       5.689879       154.8295 
 415   0.0000       5.700558       155.1201 
 416   0.0000       5.716786       155.5617 
 417   0.0000       5.732327       155.9845 
 418   0.0000       5.800423       157.8375 
 419   0.0000       5.813524       158.1940 
 420   0.0000       5.822986       158.4515 
 421   0.0000       5.852691       159.2598 
 422   0.0000       5.901214       160.5802 
 423   0.0000       5.913695       160.9198 
 424   0.0000       5.946768       161.8198 
 425   0.0000       6.001844       163.3185 
 426   0.0000       6.053470       164.7233 
 427   0.0000       6.076894       165.3607 
 428   0.0000       6.179217       168.1450 
 429   0.0000       6.284454       171.0087 
 430   0.0000       6.396580       174.0598 
 431   0.0000       6.442136       175.2994 
 432   0.0000       6.481294       176.3650 
 433   0.0000       6.541003       177.9897 
 434   0.0000       6.546818       178.1480 
 435   0.0000       6.560086       178.5090 
 436   0.0000       6.651775       181.0040 
 437   0.0000       6.794632       184.8913 
 438   0.0000       6.950679       189.1376 
 439   0.0000       7.140980       194.3159 
 440   0.0000       7.699548       209.5154 
 441   0.0000       7.891252       214.7319 
 442   0.0000       8.080302       219.8762 
 443   0.0000       8.136308       221.4002 
 444   0.0000       8.318530       226.3587 
 445   0.0000       8.526754       232.0248 
 446   0.0000       8.594952       233.8805 
 447   0.0000       8.833870       240.3818 
 448   0.0000       9.138318       248.6663 
 449   0.0000      11.213900       305.1457 
 450   0.0000      29.071337       791.0713 
 451   0.0000      29.277694       796.6866 
 452   0.0000      29.455976       801.5378 
 453   0.0000      29.478164       802.1416 
 454   0.0000      29.662675       807.1624 
 455   0.0000      29.850550       812.2748 
 456   0.0000      29.909313       813.8738 
 457   0.0000      30.103186       819.1493 
 458   0.0000      30.407981       827.4432 
 459   0.0000      37.349148      1016.3220 
 460   0.0000      37.389335      1017.4155 
 461   0.0000      37.473195      1019.6975 
 462   0.0000      37.552959      1021.8680 
 463   0.0000      37.614750      1023.5494 
 464   0.0000      37.790370      1028.3283 
 465   0.0000      37.852315      1030.0139 
 466   0.0000      42.081734      1145.1022 
 467   0.0000     133.629765      3636.2508 
 468   0.0000     133.846483      3642.1480 
 469   0.0000     134.037843      3647.3551 
 470   0.0000     134.064025      3648.0676 
 471   0.0000     134.257479      3653.3317 
 472   0.0000     134.459031      3658.8162 
 473   0.0000     134.528420      3660.7044 
 474   0.0000     134.742840      3666.5391 
 475   0.0000     135.075228      3675.5838 
 476   0.0000     191.810858      5219.4388 

                    ********************************
                    * MULLIKEN POPULATION ANALYSIS *
                    ********************************

--------------------------------------------
MULLIKEN ATOMIC CHARGES AND SPIN POPULATIONS
--------------------------------------------
   0 N :   -0.339008    0.326123
   1 C :   -0.314529    0.162793
   2 C :    0.085080    0.084934
   3 C :   -0.151198    0.432018
   4 C :   -0.935785   -0.046555
   5 C :   -0.578659    0.574879
   6 C :   -0.055100    0.168871
   7 C :   -0.057817    0.091401
[...]
Total number of batches                      ...     1359
Average number of points per batch           ...       63
Average number of grid points per atom       ...     5087

  One-electron GIAO integrals (SHARK)     ... done
  Calculating G(B)[P]                     ... (RI-J: SHARK-ok) (COSX-ok) (add-J+K:ok) => dG/dB done
  DFT XC-terms                            ... done
  Extracting occupied and virtual blocks  ... 
  Operator  0  NO=  35 NV= 442 
  Operator  1  NO=  33 NV= 444 
  Transforming and RHS contribution       ... done
  Adding eps_i * S(B)_ai terms            ... done
  Projecting overlap derivatives          ... done
  Building G[dS/dB_ij] (COSX)             ... done
  Transforming to MO basis                ... done
  Summing G[dS/dB_ij] into RHS contribs.  ... done

  GIAO profiling information: 
    Total GIAO time               ...     161.0 sec
       GIAO 1-electron integrals  ...       0.2 sec (  0.1%)
       GIAO G(dS/dB) terms        ...      10.4 sec (  6.5%)
       GIAO RI-J                  ...      12.7 sec (  7.9%)
       GIAO COSX                  ...      53.5 sec ( 33.3%)
       GIAO XC-terms              ...      82.9 sec ( 51.5%)
       Right hand side assembly   ...       0.1 sec (  0.0%)

  GIAO right hand side done


------------------------------------------------------------------------------
                           ORCA CP-SCF CALCULATION
------------------------------------------------------------------------------

Input orbitals are from        ... quinoline_triplet.gbw
Input Perturbation             ... quinoline_triplet.pin.tmp
Wavefunction output            ... quinoline_triplet.pout.tmp
Perturbation mode              ... Imaginary perturbation
Solver                         ... POPLE
Max. number of iterations      ... 64
Convergence tolerance          ... 1.000e-04
Integral handling              ... Direct
DFT GridXC                     ... 1
COSX GridX                     ... 1
COSX IntAccX                   ... 3.067
COSX Algorithm                 ... Auto
Number of perturbations        ... 3
Number of operators            ... 2
Orbital ranges used for CP-SCF:
 Operator 0:  Orbitals   0... 34  to  35...476
 Operator 1:  Orbitals   0... 32  to  33...476
Variables per perturbation     ... 30122
DFT calculation                         ... on
XC functional terms                     ... off
Hybrid DFT                              ... on
   Exchange mixing (SCF)                ...  0.250
   Exchange mixing (CP-SCF)             ...  0.250
   GGA exch. scaling(SCF)               ...  0.750
   GGA exch. scaling (CP-SCF)           ...  0.750
   GGA corr. scaling (SCF)              ...  1.000
   GGA corr. scaling (CP-SCF)           ...  1.000

CP-SCF GRID
-----------

General Integration Accuracy     IntAcc      ... 3.467
Radial Grid Type                 RadialGrid  ... OptM3 with GC (2021)
Angular Grid (max. ang.)         AngularGrid ... 1 (Lebedev-50)
Angular grid pruning method      GridPruning ... 4 (adaptive)
Weight generation scheme         WeightScheme... Becke
Basis function cutoff            BFCut       ... 1.0000e-11
Integration weight cutoff        WCut        ... 1.0000e-14
Angular grids for H and He will be reduced by one unit
Partially contracted basis set               ... off
Rotationally invariant grid construction     ... off

Total number of grid points                  ...    12736
Total number of batches                      ...      210
Average number of points per batch           ...       60
Average number of grid points per atom       ...      749

CP-SCF GRIDX
------------

General Integration Accuracy     IntAcc      ... 3.067
Radial Grid Type                 RadialGrid  ... OptM3 with GC (2021)
Angular Grid (max. ang.)         AngularGrid ... 1 (Lebedev-50)
Angular grid pruning method      GridPruning ... 4 (adaptive)
Weight generation scheme         WeightScheme... Becke
Basis function cutoff            BFCut       ... 1.0000e-11
Integration weight cutoff        WCut        ... 1.0000e-14
Angular grids for H and He will be reduced by one unit
Partially contracted basis set               ... on
Rotationally invariant grid construction     ... off

Total number of grid points                  ...     5743
Total number of batches                      ...       99
Average number of points per batch           ...       58
Average number of grid points per atom       ...      338

Memory available               ... 637.3 MB
Memory needed per perturbation ...  39.0 MB
Perturbations treated per batch... 3
Number of batches              ... 1
     CP-SCF ITERATION   0:   3.9665e+00 (  10.3 sec   0/  3 done)
     CP-SCF ITERATION   1:   4.4384e-01 (  10.1 sec   0/  3 done)
     CP-SCF ITERATION   2:   7.3259e-02 (  10.2 sec   0/  3 done)
     CP-SCF ITERATION   3:   1.1811e-02 (  10.1 sec   0/  3 done)
     CP-SCF ITERATION   4:   1.6777e-03 (  10.2 sec   0/  3 done)
     CP-SCF ITERATION   5:   2.1859e-04 (  10.1 sec   2/  3 done)
     CP-SCF ITERATION   6:   2.8417e-05 (   6.8 sec   3/  3 done)
                    *** THE CP-SCF HAS CONVERGED ***

Forming final perturbed densities           ... done
Transforming perturbed density to AO basis  ... done

Magnetic field perturbation calculated in 229.310 sec
GIAO: Diamagnetic terms      (analytic)     (SHARK) ... done
GIAO: 1el-Paramagnetic terms (analytic)     (SHARK) ... done

-------------------
ELECTRONIC G-MATRIX
-------------------

 The g-matrix: 
              2.0038150    0.0001332   -0.0000001
              0.0000490    2.0031019    0.0000000
              0.0000001    0.0000003    2.0022043

 gel          2.0023193    2.0023193    2.0023193
 gRMC        -0.0001541   -0.0001541   -0.0001541
 gDSO(tot)    0.0000339    0.0000935    0.0000904
 gPSO(tot)    0.0000052    0.0008318    0.0015710
             ----------   ----------   ----------
 g(tot)       2.0022043    2.0030905    2.0038265 iso=  2.0030404
 Delta-g     -0.0001150    0.0007712    0.0015072 iso=  0.0007211
 Orientation: 
  X           0.0000212   -0.1247830   -0.9921841
  Y          -0.0001849    0.9921840   -0.1247830
  Z           1.0000000    0.0001861   -0.0000020

Notes:  (1) The g-matrix conforms to the "BgS" spin Hamiltonian convention. 
        (2) The principal values are square roots of the eigenvalues of g*gT.
        (3) Orientations are eigenvectors of g*gT written as column vectors.
        (4) Individual contributions are projections of the full matrices onto the eigenvectors of g*gT.
        (5) Tensor is right-handed.

Active orbitals for UNO spin density= 33 .. 34

Starting the spin-spin zero-field-splitting computation (UNO)...
SHARK: Electron-Electron contact term tr(DSS) =    0.0000 1/cm
                                      tr(DSSJ)=    0.3579 1/cm
                                      tr(DSSK)=   -0.3579 1/cm

                        ... done with spin-spin calculation

---------------------------
ZERO-FIELD-SPLITTING TENSOR
---------------------------

raw-matrix : 
  -0.018935     0.002667     0.000000  
   0.002667    -0.015706    -0.000000  
   0.000000    -0.000000     0.034642  

Tensor is right-handed
diagonalized D matrix : 
  -0.020438    -0.014204     0.034642  

  -0.871175     0.490972    -0.000000  
   0.490972     0.871175     0.000000  
   0.000000    -0.000000    -1.000000  


Direction X=1 Y=0 Z=2
D   =     0.051963  cm**-1
E/D =     0.059993

SPIN-SPIN-PART
                  0          1          2    
      0      -0.018935   0.002667   0.000000
      1       0.002667  -0.015706  -0.000000
      2       0.000000  -0.000000   0.034642
Exchange and Coulomb parts of SS (raw)
Coulomb
                  0          1          2    
      0      -0.007846   0.005042   0.000000
      1       0.005042   0.016324   0.000000
      2       0.000000   0.000000  -0.008477
Exchange
                  0          1          2    
      0      -0.011089  -0.002376  -0.000000
      1      -0.002376  -0.032030  -0.000000
      2      -0.000000  -0.000000   0.043119
One-, two-, three- and four-center SS contributions (raw)
One-Center            (AA|AA):
                  0          1          2    
      0       0.000270   0.000023   0.000002
      1       0.000023   0.000325   0.000000
      2       0.000002   0.000000  -0.000595
Two-Center-Coulomb    (AA|BB):
                  0          1          2    
      0      -0.015044   0.003242  -0.000003
      1       0.003242  -0.017700  -0.000010
      2      -0.000003  -0.000010   0.032743
Two-Center-Exchange   (AB|BA):
                  0          1          2    
      0       0.000086  -0.000047  -0.000000
      1      -0.000047  -0.000653  -0.000000
      2      -0.000000  -0.000000   0.000566
Two-Center-hybrid     (AA|AB):
                  0          1          2    
      0       0.000489   0.000043   0.000006
      1       0.000043  -0.003804   0.000003
      2       0.000006   0.000003   0.003315
Three-Center-Coulomb  (AA|BC):
                  0          1          2    
      0      -0.005091  -0.000633  -0.000004
      1      -0.000633   0.006547   0.000006
      2      -0.000004   0.000006  -0.001456
Three-Center-Exchange (AB|AC):
                  0          1          2    
      0       0.000929  -0.000128  -0.000002
      1      -0.000128  -0.002094   0.000000
      2      -0.000002   0.000000   0.001165
Four-Center           (AB|CD):
                  0          1          2    
      0      -0.000575   0.000166   0.000002
      1       0.000166   0.001672   0.000001
      2       0.000002   0.000001  -0.001097

Individual contributions (in cm**-1)
                                   D         E
SPIN-SPIN                  :   0.05196    0.00312
  Exchange vs Coulomb
  Coulomb                  :  -0.01272    0.01057
  Exchange                 :   0.06468   -0.00745
  One through four center contributions:
  1-center                 :  -0.00089    0.00003
  2-center-Coulomb         :   0.04912    0.00209
  2-center-Exchange        :   0.00085   -0.00023
  2-center-Hybrid          :   0.00497   -0.00107
  3-center-Coulomb         :  -0.00218    0.00247
  3-center-Exchange        :   0.00175   -0.00089
  4-center                 :  -0.00165    0.00072


-----------------------------------------
ELECTRIC AND MAGNETIC HYPERFINE STRUCTURE
-----------------------------------------

 -----------------------------------------------------------
 Nucleus   0N : A:ISTP=   14 I=  1.0 P= 38.5677 MHz/au**3
                Q:ISTP=   14 I=  1.0 Q=  0.0204 barn     
 -----------------------------------------------------------
 Solving for nuclear perturbation:
Forming RHS of the CP-SCF equations         ... 
Calc. nucleus orbit integrals (SHARK)       ... done

------------------------------------------------------------------------------
                           ORCA CP-SCF CALCULATION
------------------------------------------------------------------------------

Input orbitals are from        ... quinoline_triplet.gbw
Input Perturbation             ... quinoline_triplet.pin.tmp
Wavefunction output            ... quinoline_triplet.pout.tmp
Perturbation mode              ... Imaginary perturbation
Solver                         ... POPLE
Max. number of iterations      ... 64
Convergence tolerance          ... 1.000e-04
Integral handling              ... Direct
DFT GridXC                     ... 1
COSX GridX                     ... 1
COSX IntAccX                   ... 3.067
COSX Algorithm                 ... Auto
Number of perturbations        ... 3
Number of operators            ... 2
Orbital ranges used for CP-SCF:
 Operator 0:  Orbitals   0... 34  to  35...476
 Operator 1:  Orbitals   0... 32  to  33...476
Variables per perturbation     ... 30122
DFT calculation                         ... on
XC functional terms                     ... off
Hybrid DFT                              ... on
   Exchange mixing (SCF)                ...  0.250
   Exchange mixing (CP-SCF)             ...  0.250
   GGA exch. scaling(SCF)               ...  0.750
   GGA exch. scaling (CP-SCF)           ...  0.750
   GGA corr. scaling (SCF)              ...  1.000
   GGA corr. scaling (CP-SCF)           ...  1.000

CP-SCF GRID
-----------

General Integration Accuracy     IntAcc      ... 3.467
Radial Grid Type                 RadialGrid  ... OptM3 with GC (2021)
Angular Grid (max. ang.)         AngularGrid ... 1 (Lebedev-50)
Angular grid pruning method      GridPruning ... 4 (adaptive)
Weight generation scheme         WeightScheme... Becke
Basis function cutoff            BFCut       ... 1.0000e-11
Integration weight cutoff        WCut        ... 1.0000e-14
Angular grids for H and He will be reduced by one unit
Partially contracted basis set               ... off
Rotationally invariant grid construction     ... off

Total number of grid points                  ...    12736
Total number of batches                      ...      210
Average number of points per batch           ...       60
Average number of grid points per atom       ...      749

CP-SCF GRIDX
------------

General Integration Accuracy     IntAcc      ... 3.067
Radial Grid Type                 RadialGrid  ... OptM3 with GC (2021)
Angular Grid (max. ang.)         AngularGrid ... 1 (Lebedev-50)
Angular grid pruning method      GridPruning ... 4 (adaptive)
Weight generation scheme         WeightScheme... Becke
Basis function cutoff            BFCut       ... 1.0000e-11
Integration weight cutoff        WCut        ... 1.0000e-14
Angular grids for H and He will be reduced by one unit
Partially contracted basis set               ... on
Rotationally invariant grid construction     ... off

Total number of grid points                  ...     5743
Total number of batches                      ...       99
Average number of points per batch           ...       58
Average number of grid points per atom       ...      338

Memory available               ... 586.1 MB
Memory needed per perturbation ...  39.0 MB
Perturbations treated per batch... 3
Number of batches              ... 1
     CP-SCF ITERATION   0:   5.8318e+00 (  10.3 sec   0/  3 done)
     CP-SCF ITERATION   1:   8.6954e-01 (  10.1 sec   0/  3 done)
     CP-SCF ITERATION   2:   8.5968e-02 (  10.2 sec   0/  3 done)
     CP-SCF ITERATION   3:   7.4806e-03 (  10.1 sec   0/  3 done)
     CP-SCF ITERATION   4:   9.0209e-04 (  10.2 sec   1/  3 done)
     CP-SCF ITERATION   5:   7.7873e-05 (   8.4 sec   3/  3 done)
                    *** THE CP-SCF HAS CONVERGED ***

Forming final perturbed densities           ... done
Transforming perturbed density to AO basis  ... done

 Raw HFC matrix (all values in MHz): 
 -----------------------------------
                -1.3570               0.0429               0.0000
                 0.0381              -1.7535              -0.0000
                 0.0000              -0.0000              22.3594

 A(FC)           6.4037               6.4037               6.4037
 A(SD)          -7.8195              -8.1374              15.9570
 A(ORB+DIA)      0.0629              -0.0239              -0.0013    A(PC) =   0.0126
 A(ORB)          0.0627              -0.0240              -0.0013    A(PC) =   0.0125
 A(DIA)          0.0001               0.0001              -0.0000    A(PC) =   0.0001
             ----------           ----------           ----------
 A(Tot)         -1.3530              -1.7576              22.3594    A(iso)=    6.4163
 Orientation: 
  X          -0.9943349           -0.1062924           -0.0000001
  Y          -0.1062924            0.9943349            0.0000001
  Z           0.0000001            0.0000001           -1.0000000

Notes:  (1) The A matrix conforms to the "SAI" spin Hamiltonian convention.
        (2) Tensor is right-handed.

 Raw EFG matrix (all values in a.u.**-3):
 -----------------------------------
             0.3999       0.0198       0.0000
             0.0198      -0.9967      -0.0000
             0.0000      -0.0000       0.5968

 V(El)      -0.5988       1.6055      -1.0067
 V(Nuc)      0.9990      -1.0087       0.0097
         ----------   ----------   ----------
 V(Tot)      0.4002       0.5968      -0.9970 
 Orientation: 
  X       0.9998993    0.0000008    0.0141898
  Y       0.0141898   -0.0000002   -0.9998993
  Z      -0.0000008    1.0000000   -0.0000002

Note: Tensor is right-handed


 Quadrupole tensor eigenvalues (in MHz;Q= 0.0204 I=  1.0)
  e**2qQ            =    -4.788171 MHz 
  e**2qQ/(4I*(2I-1))=    -1.197043 MHz 
  eta               =     0.197208
  NOTE: the diagonal representation of the SH term I*Q*I = e**2qQ/(4I(2I-1))*[-(1-eta),-(1+eta),2]

 RHO(0)=    200.303978811 a.u.**-3


--------------------------------------------------------------------------------
----------------------------------------------------------------------------
                           ORCA EULER ANGLE PROGRAM
----------------------------------------------------------------------------

ZFS >= 0.3 cm**-1              -->  using D-tensor as reference tensor

Reference tensor               ...  D

D-tensor ordering              ...  |D_min> --> |Dx>
                                    |D_mid> --> |Dy>
                                    |D_max> --> |Dz>

A- and EFG-tensor ordering     ...  the axes |Ax>, |Qx>, |Ay>, etc. are assigned
                                    such that the Euler rotation is minimal. You
                                    can find the respective eigenvalues as Ax,
                                    EFGx, Ay, etc. in the tables below.
                                    The relation of |Ax>, |Ay>,  etc. to Amin, Amid, etc.
                                    (as printed in the ORCA EPR/NMR CALCULATION Output)
                                    is obtained in the detailed printout.

Euler rotation around          ...  z - y - z
   First rotation              -->  by alpha around z
   Second rotation             -->  by beta around y'
   Third rotation              -->  by gamma around z''
   Positive / Negative angle   -->  clockwise / counterclockwise rotation

Plot EFG-tensors                    (-)
Plot HFC-tensors                    (-)
Detailed Printout                   (-)

-------------------------------------------------------------------------
          Euler rotation of hyperfine tensor to D-tensor
-------------------------------------------------------------------------

-------------------------------------------------------------------
 Atom  |   Alpha    Beta    Gamma   |   Ax       Ay       Az 
       |          [degrees]         |           [MHz]         
-------------------------------------------------------------------
  0N       35.5      0.0      0.0      -1.35    -1.76    22.36
-------------------------------------------------------------------


-------------------------------------------------------------------------------
    Euler rotation of Electric Field Gradient (EFG) tensor to D-tensor
-------------------------------------------------------------------------------

-------------------------------------------------------------------
 Atom  |   Alpha    Beta    Gamma  |   EFGx     EFGy     EFGz
       |          [degrees]        |         [a.u.**-3]       
-------------------------------------------------------------------
  0N       30.2      0.0      0.0      0.40    -1.00     0.60
-------------------------------------------------------------------


Maximum memory used throughout the entire EPRNMR-calculation: 489.6 MB

Timings for individual modules:

Sum of individual times         ...     1240.877 sec (=  20.681 min)
GTO integral calculation        ...        0.675 sec (=   0.011 min)   0.1 %
Spin-Orbit-Coupling Matrices    ...       28.724 sec (=   0.479 min)   2.3 %
SCF iterations                  ...      590.289 sec (=   9.838 min)  47.6 %
EPR/NMR calculation             ...      621.189 sec (=  10.353 min)  50.1 %
                             ****ORCA TERMINATED NORMALLY****
TOTAL RUN TIME: 0 days 0 hours 20 minutes 41 seconds 404 msec
